# vtk DataFile Version 3.0
RapidFEM Mode 2 f=10.6195GHz
ASCII
DATASET UNSTRUCTURED_GRID
POINTS 242 double
0.0000000000e0 0.0000000000e0 1.0160000000e-2
0.0000000000e0 0.0000000000e0 0.0000000000e0
0.0000000000e0 3.0000000000e-2 1.0160000000e-2
0.0000000000e0 3.0000000000e-2 0.0000000000e0
2.2860000000e-2 0.0000000000e0 1.0160000000e-2
2.2860000000e-2 0.0000000000e0 0.0000000000e0
2.2860000000e-2 3.0000000000e-2 1.0160000000e-2
2.2860000000e-2 3.0000000000e-2 0.0000000000e0
0.0000000000e0 0.0000000000e0 3.3866666667e-3
0.0000000000e0 0.0000000000e0 6.7733333333e-3
0.0000000000e0 3.7500000000e-3 1.0160000000e-2
0.0000000000e0 7.5000000000e-3 1.0160000000e-2
0.0000000000e0 1.1250000000e-2 1.0160000000e-2
0.0000000000e0 1.5000000000e-2 1.0160000000e-2
0.0000000000e0 1.8750000000e-2 1.0160000000e-2
0.0000000000e0 2.2500000000e-2 1.0160000000e-2
0.0000000000e0 2.6250000000e-2 1.0160000000e-2
0.0000000000e0 3.0000000000e-2 3.3866666667e-3
0.0000000000e0 3.0000000000e-2 6.7733333333e-3
0.0000000000e0 3.7500000000e-3 0.0000000000e0
0.0000000000e0 7.5000000000e-3 0.0000000000e0
0.0000000000e0 1.1250000000e-2 0.0000000000e0
0.0000000000e0 1.5000000000e-2 0.0000000000e0
0.0000000000e0 1.8750000000e-2 0.0000000000e0
0.0000000000e0 2.2500000000e-2 0.0000000000e0
0.0000000000e0 2.6250000000e-2 0.0000000000e0
2.2860000000e-2 0.0000000000e0 3.3866666667e-3
2.2860000000e-2 0.0000000000e0 6.7733333333e-3
2.2860000000e-2 3.7500000000e-3 1.0160000000e-2
2.2860000000e-2 7.5000000000e-3 1.0160000000e-2
2.2860000000e-2 1.1250000000e-2 1.0160000000e-2
2.2860000000e-2 1.5000000000e-2 1.0160000000e-2
2.2860000000e-2 1.8750000000e-2 1.0160000000e-2
2.2860000000e-2 2.2500000000e-2 1.0160000000e-2
2.2860000000e-2 2.6250000000e-2 1.0160000000e-2
2.2860000000e-2 3.0000000000e-2 3.3866666667e-3
2.2860000000e-2 3.0000000000e-2 6.7733333333e-3
2.2860000000e-2 3.7500000000e-3 0.0000000000e0
2.2860000000e-2 7.5000000000e-3 0.0000000000e0
2.2860000000e-2 1.1250000000e-2 0.0000000000e0
2.2860000000e-2 1.5000000000e-2 0.0000000000e0
2.2860000000e-2 1.8750000000e-2 0.0000000000e0
2.2860000000e-2 2.2500000000e-2 0.0000000000e0
2.2860000000e-2 2.6250000000e-2 0.0000000000e0
3.8100000000e-3 0.0000000000e0 0.0000000000e0
7.6200000000e-3 0.0000000000e0 0.0000000000e0
1.1430000000e-2 0.0000000000e0 0.0000000000e0
1.5240000000e-2 0.0000000000e0 0.0000000000e0
1.9050000000e-2 0.0000000000e0 0.0000000000e0
3.8100000000e-3 0.0000000000e0 1.0160000000e-2
7.6200000000e-3 0.0000000000e0 1.0160000000e-2
1.1430000000e-2 0.0000000000e0 1.0160000000e-2
1.5240000000e-2 0.0000000000e0 1.0160000000e-2
1.9050000000e-2 0.0000000000e0 1.0160000000e-2
3.8100000000e-3 3.0000000000e-2 0.0000000000e0
7.6200000000e-3 3.0000000000e-2 0.0000000000e0
1.1430000000e-2 3.0000000000e-2 0.0000000000e0
1.5240000000e-2 3.0000000000e-2 0.0000000000e0
1.9050000000e-2 3.0000000000e-2 0.0000000000e0
3.8100000000e-3 3.0000000000e-2 1.0160000000e-2
7.6200000000e-3 3.0000000000e-2 1.0160000000e-2
1.1430000000e-2 3.0000000000e-2 1.0160000000e-2
1.5240000000e-2 3.0000000000e-2 1.0160000000e-2
1.9050000000e-2 3.0000000000e-2 1.0160000000e-2
0.0000000000e0 2.7067060633e-2 5.0800000000e-3
0.0000000000e0 2.9329393675e-3 5.0800000000e-3
0.0000000000e0 2.0607895740e-2 3.4149433368e-3
0.0000000000e0 1.3125000000e-2 3.2475952642e-3
0.0000000000e0 1.6875000000e-2 6.9124047358e-3
0.0000000000e0 9.3921042596e-3 6.7450566632e-3
0.0000000000e0 2.0575689701e-2 7.5387577184e-3
0.0000000000e0 1.6874109524e-2 3.0751560233e-3
0.0000000000e0 1.3125890476e-2 7.0848439767e-3
0.0000000000e0 9.4243102990e-3 2.6212422816e-3
0.0000000000e0 5.3249758464e-3 7.1684469476e-3
0.0000000000e0 2.4675024154e-2 2.9915530524e-3
0.0000000000e0 2.4145552764e-2 7.0464405194e-3
0.0000000000e0 5.8544472356e-3 3.1135594806e-3
0.0000000000e0 2.7479635784e-2 7.7520655419e-3
0.0000000000e0 2.7479635784e-2 2.4079344581e-3
0.0000000000e0 2.5203642158e-3 7.7520655419e-3
0.0000000000e0 2.5203642158e-3 2.4079344581e-3
2.2860000000e-2 2.7067060633e-2 5.0800000000e-3
2.2860000000e-2 2.9329393675e-3 5.0800000000e-3
2.2860000000e-2 2.0607895740e-2 3.4149433368e-3
2.2860000000e-2 1.3125000000e-2 3.2475952642e-3
2.2860000000e-2 1.6875000000e-2 6.9124047358e-3
2.2860000000e-2 9.3921042596e-3 6.7450566632e-3
2.2860000000e-2 2.0575689701e-2 7.5387577184e-3
2.2860000000e-2 1.6874109524e-2 3.0751560233e-3
2.2860000000e-2 1.3125890476e-2 7.0848439767e-3
2.2860000000e-2 9.4243102990e-3 2.6212422816e-3
2.2860000000e-2 5.3249758464e-3 7.1684469476e-3
2.2860000000e-2 2.4675024154e-2 2.9915530524e-3
2.2860000000e-2 2.4145552764e-2 7.0464405194e-3
2.2860000000e-2 5.8544472356e-3 3.1135594806e-3
2.2860000000e-2 2.7479635784e-2 2.4079344581e-3
2.2860000000e-2 2.7479635784e-2 7.7520655419e-3
2.2860000000e-2 2.5203642158e-3 7.7520655419e-3
2.2860000000e-2 2.5203642158e-3 2.4079344581e-3
2.9329393675e-3 0.0000000000e0 5.0800000000e-3
1.9927060633e-2 0.0000000000e0 5.0800000000e-3
9.5250000000e-3 0.0000000000e0 3.2995567884e-3
1.3335000000e-2 0.0000000000e0 6.8604432116e-3
1.3288060349e-2 0.0000000000e0 2.6642308317e-3
9.5719396507e-3 0.0000000000e0 7.4957691683e-3
1.7465697863e-2 0.0000000000e0 7.1978653226e-3
5.3943021370e-3 0.0000000000e0 2.9621346774e-3
1.6910301746e-2 0.0000000000e0 3.1611541587e-3
5.9496982536e-3 0.0000000000e0 6.9988458413e-3
2.5281752011e-3 0.0000000000e0 7.7655945654e-3
2.5281752011e-3 0.0000000000e0 2.3944054346e-3
2.0331824799e-2 0.0000000000e0 7.7655945654e-3
2.0331824799e-2 0.0000000000e0 2.3944054346e-3
2.9329393675e-3 3.0000000000e-2 5.0800000000e-3
1.9927060633e-2 3.0000000000e-2 5.0800000000e-3
9.5250000000e-3 3.0000000000e-2 3.2995567884e-3
1.3335000000e-2 3.0000000000e-2 6.8604432116e-3
1.3288060349e-2 3.0000000000e-2 2.6642308317e-3
9.5719396507e-3 3.0000000000e-2 7.4957691683e-3
1.7465697863e-2 3.0000000000e-2 7.1978653226e-3
5.3943021370e-3 3.0000000000e-2 2.9621346774e-3
1.6910301746e-2 3.0000000000e-2 3.1611541587e-3
5.9496982536e-3 3.0000000000e-2 6.9988458413e-3
2.5281752011e-3 3.0000000000e-2 7.7655945654e-3
2.5281752011e-3 3.0000000000e-2 2.3944054346e-3
2.0331824799e-2 3.0000000000e-2 7.7655945654e-3
2.0331824799e-2 3.0000000000e-2 2.3944054346e-3
3.0032597289e-3 1.7053382250e-2 0.0000000000e0
1.9374906205e-2 1.3140168730e-2 0.0000000000e0
1.3292324977e-2 2.6390097520e-2 0.0000000000e0
9.5349916220e-3 3.2987589966e-3 0.0000000000e0
1.9282143073e-2 2.0260904772e-2 0.0000000000e0
3.3990631681e-3 9.0777329865e-3 0.0000000000e0
1.6993391798e-2 3.2075459795e-3 0.0000000000e0
5.5706840137e-3 2.6774551281e-2 0.0000000000e0
1.3312591326e-2 3.2785812089e-3 0.0000000000e0
1.1435229781e-2 6.5801018339e-3 0.0000000000e0
7.0221190436e-3 6.8767844285e-3 0.0000000000e0
9.5482210217e-3 9.8627330247e-3 0.0000000000e0
1.3329378341e-2 9.8552977906e-3 0.0000000000e0
1.1442663086e-2 1.3123500598e-2 0.0000000000e0
7.7150351477e-3 1.3129967350e-2 0.0000000000e0
9.6645250455e-3 1.6332769384e-2 0.0000000000e0
1.3347048630e-2 1.6371376085e-2 0.0000000000e0
1.1441262234e-2 1.9616869481e-2 0.0000000000e0
8.0656326056e-3 1.9396484399e-2 0.0000000000e0
9.7574291791e-3 2.2918228652e-2 0.0000000000e0
1.5170836301e-2 1.9788578707e-2 0.0000000000e0
1.7106992305e-2 1.6592316327e-2 0.0000000000e0
1.6701906859e-2 2.3314854219e-2 0.0000000000e0
5.6802354321e-3 3.1827773814e-3 0.0000000000e0
1.5200355414e-2 6.5624135570e-3 0.0000000000e0
1.7104311409e-2 9.8670221071e-3 0.0000000000e0
1.9330824752e-2 6.1670243647e-3 0.0000000000e0
9.2384056136e-3 2.6583295217e-2 0.0000000000e0
1.5284216663e-2 1.3158280273e-2 0.0000000000e0
3.8333502594e-3 1.3112028103e-2 0.0000000000e0
2.9169526120e-3 2.0658918312e-2 0.0000000000e0
1.7211032325e-2 2.6909153486e-2 0.0000000000e0
3.0282716898e-3 2.4278122460e-2 0.0000000000e0
3.1513738996e-3 5.6064197490e-3 0.0000000000e0
1.3272751910e-2 2.2405725716e-2 0.0000000000e0
1.9926363821e-2 2.4391666377e-2 0.0000000000e0
6.1886758944e-3 2.2696242807e-2 0.0000000000e0
6.3313909733e-3 1.6128987380e-2 0.0000000000e0
2.0270458824e-2 1.6842117338e-2 0.0000000000e0
6.3399109015e-3 1.0257232482e-2 0.0000000000e0
2.0306008473e-2 9.5848430404e-3 0.0000000000e0
2.8124266069e-3 2.7969454326e-3 0.0000000000e0
2.0060936205e-2 2.7833688157e-3 0.0000000000e0
2.7164751199e-3 2.7280121283e-2 0.0000000000e0
2.0259599042e-2 2.7402075216e-2 0.0000000000e0
5.3011823629e-3 1.9186803030e-2 0.0000000000e0
3.4850937950e-3 1.6859831270e-2 1.0160000000e-2
1.9856740271e-2 1.2946617750e-2 1.0160000000e-2
1.3325008378e-2 2.6701241003e-2 1.0160000000e-2
9.5676750235e-3 3.6099024795e-3 1.0160000000e-2
1.9460936832e-2 2.0922267013e-2 1.0160000000e-2
3.5778569271e-3 9.7390952284e-3 1.0160000000e-2
1.7289315986e-2 3.2254487189e-3 1.0160000000e-2
5.8666082021e-3 2.6792454020e-2 1.0160000000e-2
9.5474086744e-3 2.6721418791e-2 1.0160000000e-2
1.1424770219e-2 2.3419898166e-2 1.0160000000e-2
1.5837880956e-2 2.3123215571e-2 1.0160000000e-2
1.3311778978e-2 2.0137266975e-2 1.0160000000e-2
9.5306216592e-3 2.0144702209e-2 1.0160000000e-2
1.1417336914e-2 1.6876499402e-2 1.0160000000e-2
1.5144964852e-2 1.6870032650e-2 1.0160000000e-2
1.3195474954e-2 1.3667230616e-2 1.0160000000e-2
9.5129513703e-3 1.3628623915e-2 1.0160000000e-2
1.1418737766e-2 1.0383130519e-2 1.0160000000e-2
1.4794367394e-2 1.0603515601e-2 1.0160000000e-2
1.3102570821e-2 7.0817713478e-3 1.0160000000e-2
7.6891636986e-3 1.0211421293e-2 1.0160000000e-2
5.7530076952e-3 1.3407683673e-2 1.0160000000e-2
6.1580931408e-3 6.6851457810e-3 1.0160000000e-2
1.7179764568e-2 2.6817222619e-2 1.0160000000e-2
7.6596445855e-3 2.3437586443e-2 1.0160000000e-2
5.7556885912e-3 2.0132977893e-2 1.0160000000e-2
3.5291752478e-3 2.3832975635e-2 1.0160000000e-2
1.3621594386e-2 3.4167047832e-3 1.0160000000e-2
7.5757833375e-3 1.6841719727e-2 1.0160000000e-2
1.9943047388e-2 9.3410816876e-3 1.0160000000e-2
1.9026649741e-2 1.6887971897e-2 1.0160000000e-2
5.6489676750e-3 3.0908465141e-3 1.0160000000e-2
1.9831728310e-2 5.7218775397e-3 1.0160000000e-2
1.9708626100e-2 2.4393580251e-2 1.0160000000e-2
9.5872480899e-3 7.5942742841e-3 1.0160000000e-2
[...]
POINT_DATA 242
VECTORS E_real double
0.0000000000e0 0.0000000000e0 0.0000000000e0
0.0000000000e0 0.0000000000e0 0.0000000000e0
-1.8073887195e-17 -8.3752668486e-18 -1.5890926936e-17
-3.8504007764e-19 -2.3784022964e-18 -2.9079691075e-18
5.2487846014e-18 3.0052620582e-18 -8.1365921826e-18
5.2332239313e-18 -1.9410291211e-19 2.0316584292e-19
9.6832495452e-17 2.1921069159e-17 1.5460318597e-16
1.4794535387e-17 -2.0945705564e-18 -6.5946244813e-17
0.0000000000e0 0.0000000000e0 0.0000000000e0
0.0000000000e0 0.0000000000e0 0.0000000000e0
-9.9055664325e-20 0.0000000000e0 0.0000000000e0
0.0000000000e0 0.0000000000e0 4.0736333282e-18
3.0904607299e-18 0.0000000000e0 0.0000000000e0
9.1934794091e-19 0.0000000000e0 0.0000000000e0
-3.1140948671e-18 5.1676413501e-19 7.4114689830e-19
-5.7706938370e-18 1.1613661712e-18 -7.8793072546e-18
1.1769742483e-17 0.0000000000e0 0.0000000000e0
-9.1924502857e-18 1.7006202795e-17 -6.9456264858e-18
-9.7645565080e-18 3.8247817978e-17 3.3790400186e-19
0.0000000000e0 0.0000000000e0 0.0000000000e0
0.0000000000e0 0.0000000000e0 0.0000000000e0
0.0000000000e0 0.0000000000e0 0.0000000000e0
0.0000000000e0 0.0000000000e0 0.0000000000e0
0.0000000000e0 0.0000000000e0 1.0871088894e-17
0.0000000000e0 0.0000000000e0 4.2898565826e-18
0.0000000000e0 0.0000000000e0 8.2447987103e-18
0.0000000000e0 5.6444791016e-18 0.0000000000e0
0.0000000000e0 -6.7652975678e-18 0.0000000000e0
4.9601338188e-17 -8.8813590999e-18 3.6946311567e-17
-4.0101798005e-17 6.9654588064e-18 5.9603813557e-17
-7.7037779982e-18 -6.0184957526e-32 1.2773747472e-16
4.2032819917e-17 4.8612922731e-17 -1.5495791932e-16
8.3558576396e-18 -6.6952254328e-18 -1.7483022424e-17
-4.5622751481e-17 -4.1851514193e-18 -7.0882289586e-17
4.0825995677e-17 -1.2925657239e-30 1.1637823149e-16
1.4163046188e-17 -3.0426383779e-17 -4.7592527231e-18
7.9537632198e-17 6.8357165029e-17 1.8714532667e-17
3.0544311797e-18 0.0000000000e0 4.6532886982e-33
0.0000000000e0 0.0000000000e0 9.9985098741e-18
0.0000000000e0 0.0000000000e0 3.5805717147e-18
-3.2555716594e-17 -6.7767009481e-18 5.2899618845e-17
3.6103452274e-17 -3.6529049902e-18 -2.4879090094e-17
0.0000000000e0 0.0000000000e0 -1.7516247302e-17
4.2464228872e-17 8.4451726973e-18 -5.7537738749e-17
0.0000000000e0 0.0000000000e0 0.0000000000e0
0.0000000000e0 0.0000000000e0 0.0000000000e0
0.0000000000e0 0.0000000000e0 -2.3577384687e-19
0.0000000000e0 0.0000000000e0 0.0000000000e0
0.0000000000e0 0.0000000000e0 0.0000000000e0
-1.2136454310e-18 1.4547103773e-18 6.4971486788e-19
0.0000000000e0 0.0000000000e0 0.0000000000e0
0.0000000000e0 2.4265637268e-18 0.0000000000e0
1.0936377997e-17 4.1361122501e-17 6.8731445118e-19
0.0000000000e0 -1.1437278194e-18 0.0000000000e0
-4.3504311117e-18 6.1467817196e-18 -8.5273993600e-18
0.0000000000e0 0.0000000000e0 -5.9950234055e-18
0.0000000000e0 0.0000000000e0 8.7730771617e-18
0.0000000000e0 0.0000000000e0 7.8321181588e-18
0.0000000000e0 0.0000000000e0 1.9123593187e-17
-2.8191597026e-18 -3.5645562501e-17 2.8704300234e-17
-3.8959186113e-18 3.9622018123e-17 5.2864829085e-17
-1.3702903755e-17 5.1538010914e-17 -8.9303757312e-17
-6.0681752966e-18 5.6583121660e-17 -3.6032782878e-17
3.3335785734e-17 -1.4034261118e-16 1.6691244121e-16
-3.2917070766e-3 -3.4176221729e-4 -5.2769139244e-5
-2.7228222246e-3 3.0090488659e-5 4.6460641512e-6
-3.0152499649e-4 7.7440708218e-5 -7.9594816576e-4
-3.0604967469e-3 1.2220419511e-3 -4.1795266870e-4
-3.0926632519e-3 3.7844086312e-4 -2.2359472111e-3
-1.0016208865e-3 -4.4231461750e-5 -4.2489174044e-4
-3.1247051979e-3 2.9449147421e-4 8.5162718013e-4
-2.4059752717e-3 1.4062342177e-3 3.7624947497e-4
-1.9562495769e-3 8.9567205036e-4 5.4188127681e-4
-3.9256881819e-3 -1.0994872052e-3 -1.8195625304e-4
-9.7272013299e-4 -1.0733628911e-3 8.4546581094e-4
-2.8480354322e-3 7.0021168929e-5 6.7263018578e-4
-1.1067570103e-3 -2.5138021159e-5 -1.8227941944e-4
-3.2424043860e-3 -4.8320701006e-4 2.2831564015e-3
-3.7253425252e-3 -5.0285618856e-4 7.3954451112e-4
-1.2356830611e-3 9.2093583162e-4 -2.9113017590e-4
-2.3469390950e-3 2.1068143960e-3 -2.8588548268e-3
-1.1289024364e-3 -3.9912172219e-4 1.2595777957e-3
1.1929481461e-3 -2.3631899299e-4 -3.6488380565e-5
6.5902076861e-4 4.1164908458e-3 6.3559886860e-4
5.1940134351e-3 2.2546691897e-4 2.1658572388e-3
3.8247446218e-3 -5.6807078546e-4 3.3563402165e-3
3.8649934007e-3 3.7965625589e-3 -5.4875000582e-4
1.4041590838e-3 5.9100594731e-4 2.6103840292e-4
1.6226523314e-3 1.6699793910e-3 1.1225356684e-3
2.1061457612e-3 5.5798551317e-18 1.2843180995e-17
7.6466682394e-4 3.0423729239e-5 -3.3431413228e-4
1.8799039592e-3 -7.1384714449e-4 -1.3571208155e-3
2.9054085541e-3 -4.2056719941e-5 -4.0400095828e-4
2.5017564156e-3 2.6524350362e-3 1.7191884014e-4
3.1481855812e-3 3.7574737353e-4 -1.7754088896e-3
6.2315103233e-4 -4.9381254191e-5 -3.5807060104e-4
1.6980940455e-3 -3.2695870080e-4 1.0613844032e-4
-1.1106490873e-4 -4.4331456702e-3 2.0855619452e-3
2.8819763709e-3 -9.6438809153e-5 -2.4368001530e-4
3.9792858558e-3 1.1413691270e-3 5.8880632579e-3
-7.6901402961e-3 -3.3357263973e-4 -1.1590331863e-3
5.8053466504e-3 -3.1813154171e-4 -8.7496315629e-4
-4.2011423287e-4 -5.3520976594e-5 4.6994798081e-6
-2.4059231358e-5 -1.0125718456e-3 -1.4250376300e-4
1.5455517475e-3 -3.4436626041e-3 8.2092615877e-6
-3.5372077774e-4 -4.7652411654e-4 5.8948939403e-4
-2.6742762135e-3 -3.1450375467e-3 -8.3786556815e-4
3.4042649385e-5 -2.2892623496e-3 -4.1674773071e-4
2.8533295078e-4 -2.9272599839e-3 1.2732636364e-3
2.8130618406e-4 -3.9219971733e-3 -2.0505354647e-3
-7.6958521826e-3 -1.5542379254e-3 -1.9429278061e-3
-2.7915227759e-3 -1.3192981493e-4 4.2072932522e-4
5.9905796154e-3 -1.5071467440e-3 -9.0288087240e-4
1.3581839275e-3 4.6624570053e-4 2.0470110874e-4
-3.9872397879e-3 3.6573760002e-5 6.0094394354e-4
6.5924285314e-3 3.7199084720e-5 9.9358960331e-4
-5.0167997134e-5 -3.8218162245e-5 -2.9714699806e-4
4.0830220381e-4 3.1060864567e-4 -4.5673481456e-6
-2.5199432328e-4 2.9599768354e-3 -1.1959779448e-3
-1.0844883548e-3 3.9725818504e-3 -4.8263888926e-4
-2.2138476290e-5 1.5911066766e-3 2.7101767699e-4
-1.1282500796e-3 1.3193461129e-3 -1.1791815938e-4
-1.9169617355e-4 4.1162352103e-3 1.3973379349e-3
-2.0768492757e-4 2.6918596077e-3 -9.2676876394e-4
-6.5496900368e-3 1.0509556773e-3 -9.8714819500e-4
-2.0367479462e-3 3.8593484235e-4 3.0697209295e-4
3.6362123750e-3 2.9412184621e-3 -5.4803822204e-4
4.7050831598e-3 1.5750042025e-3 1.4508099165e-3
-6.9271815624e-3 -1.4589371073e-3 -2.0053527313e-3
0.0000000000e0 0.0000000000e0 -1.7886050662e-3
-1.7580431681e-3 4.5024772232e-3 -1.2714790215e-3
1.2639999344e-3 -3.6951996049e-3 2.4663789677e-4
-3.3277378006e-4 2.8965902971e-3 -5.0704734151e-3
-7.0048740230e-4 7.5406639238e-5 8.2652588125e-5
6.2423768081e-4 3.3362892805e-4 -4.1287987532e-4
-1.9306149602e-3 3.8321142246e-3 -1.8007248772e-3
-1.9918739429e-5 -3.7291017828e-3 -1.3948880222e-3
-1.4590327974e-3 8.4380443437e-4 -1.6011286678e-4
-2.4458154243e-4 -1.7177134787e-4 -2.4034393405e-3
-1.9539866702e-7 -9.9369177764e-5 -1.4872255726e-3
2.1300360795e-6 1.0832209710e-3 -8.2258861812e-4
8.6942262260e-4 -5.0978428213e-4 6.0582448519e-4
3.8649136412e-3 1.7831375554e-3 -1.0973042857e-3
-4.6112007679e-5 7.5422510647e-4 -2.7847568880e-3
6.3138386159e-4 3.8065986969e-4 -1.0018661020e-3
-1.7669616808e-3 -1.0375776877e-3 -1.8005430956e-3
-1.3306295578e-4 1.7543090350e-3 -3.3639653792e-3
6.1621635367e-4 -2.9602169852e-4 -2.9705456405e-3
1.3094721548e-3 -5.6855859838e-4 -1.1878517636e-3
0.0000000000e0 0.0000000000e0 -1.6189505075e-3
-5.1161578528e-4 2.8353005863e-4 -3.8273935731e-3
0.0000000000e0 0.0000000000e0 -3.5568194530e-3
5.2933609004e-4 2.8290799759e-4 -9.0962770768e-4
-1.0117718014e-5 -1.1479897658e-4 -9.8838881057e-4
9.2960299718e-3 -2.6523750843e-3 -6.4537231390e-4
1.1115665424e-4 2.1316535148e-3 -3.2966107086e-3
-1.5574391008e-3 6.3235311761e-4 -2.6516520221e-3
0.0000000000e0 0.0000000000e0 -1.0965982017e-3
-1.3820809310e-4 -2.2384106137e-4 -2.3827100237e-3
-5.9969166170e-4 3.7089053463e-3 -5.2441274987e-4
-4.0759640342e-3 1.2536804738e-4 -6.1700806632e-4
3.1689113182e-4 -9.6555330094e-4 -1.0724380847e-3
0.0000000000e0 0.0000000000e0 -1.9002135152e-3
2.7848547537e-3 -3.3267280737e-3 -2.3027374993e-3
0.0000000000e0 0.0000000000e0 -1.8233438509e-3
1.6302640455e-3 7.5214747717e-4 -2.7751250742e-3
1.2057270479e-4 -1.6365156512e-4 2.7838904620e-3
0.0000000000e0 0.0000000000e0 -3.2873653225e-3
2.1021345192e-3 1.9772470849e-4 1.0561162285e-4
-4.3715632505e-3 -5.2084557659e-3 5.7672136838e-5
3.8718241389e-3 -5.6101797688e-3 5.1949574287e-5
-7.2631020686e-4 1.4662420200e-3 -4.4775263110e-5
3.3116161548e-3 4.6106875212e-3 -4.7818599971e-4
-1.0435839398e-3 -1.6901827635e-3 -2.3215416822e-3
-7.1677380413e-19 3.1472397468e-18 7.8485680998e-4
4.7029293144e-18 -2.5859655036e-17 2.4171788726e-3
-2.0372953043e-3 4.9316967817e-3 -2.8714889579e-4
6.9381443145e-4 -2.6325555711e-3 8.1487525901e-4
2.1012370039e-3 -2.2619567487e-4 1.4502207282e-4
-1.9637765284e-4 1.7093462222e-3 1.3264661752e-3
6.1986118643e-4 -4.6223460198e-4 4.5593246120e-4
-1.0739068819e-3 -5.7395830603e-4 2.0961882903e-3
1.2855747391e-5 2.4067984165e-3 2.2009965240e-3
1.9822554692e-3 -1.1464005182e-3 8.5562316978e-4
-2.5732829940e-3 -1.8072348548e-3 9.2597894838e-4
-7.6117297069e-7 -3.8709134195e-4 -9.5770860265e-4
-1.7918031032e-6 -9.1121400055e-4 -2.0477913499e-4
-7.7994268057e-5 4.5731789026e-5 2.3990356385e-3
-6.6545680360e-3 -3.0701876630e-3 4.1603208999e-4
1.5205325427e-5 -2.4870394430e-4 3.0344745387e-3
-8.8362368453e-4 -5.3273467548e-4 -2.1842922273e-4
1.8464415914e-3 1.0842490913e-3 1.7405900526e-3
4.6809447137e-5 -6.1713822269e-4 4.1904952630e-3
-6.3542675536e-4 3.0525010621e-4 1.3478222504e-3
-3.5786073760e-4 1.5537924853e-4 6.3542067633e-4
-1.4422302900e-17 -4.6479587499e-17 1.2528612127e-3
-3.9838668448e-3 -1.8719373529e-3 1.4902860548e-3
-3.3471731947e-17 -8.8767846864e-18 2.8432819733e-3
-7.1869499875e-4 -3.8411241326e-4 9.3929887883e-4
-1.2934883233e-5 -1.4676346537e-4 1.7988416660e-4
-2.6129514134e-3 7.4553623927e-4 1.8800138211e-3
-4.1387497418e-4 -7.9368891538e-3 2.6054171810e-3
1.3757051882e-3 8.3952564580e-4 2.5053012484e-3
-1.3373702910e-4 -2.1659975092e-4 4.2484126104e-3
-2.1426879185e-17 -1.6253631710e-17 9.1183167528e-4
3.8268675901e-4 -2.3667979015e-3 4.1006016106e-4
5.1688321883e-3 -1.5898236422e-4 7.7025702183e-4
-5.1084762379e-4 1.5565301768e-3 -2.1419273569e-4
7.7591883881e-18 -3.8890538843e-18 1.8358181785e-3
-2.4149263716e-3 -2.5278538213e-3 3.1063082693e-4
-1.4050220814e-17 -2.1804944050e-17 2.1777936860e-3
-2.7438611082e-3 -1.2659226681e-3 -1.6741369679e-3
-3.3966871830e-3 -9.8192692915e-4 8.2801472951e-4
2.1651905431e-17 -1.0128717366e-17 -1.2880712523e-3
-5.5437435784e-3 -2.5143896780e-3 -1.9449500994e-4
3.9706698002e-3 3.6167112142e-3 4.8450012421e-4
1.2293952808e-3 -2.6057780140e-3 7.6262330702e-5
-3.2612366040e-3 3.7116358873e-3 -2.7559266196e-4
-1.0416105131e-3 -1.2537125287e-3 1.9609813190e-4
7.6359461880e-4 1.2367136113e-3 2.5830553140e-3
1.4868022907e-3 7.7271829900e-4 3.4361489226e-3
-2.1667998869e-3 -7.1774040813e-4 -5.1513901283e-3
4.0090881803e-3 -6.7976916769e-4 -7.8495929060e-3
-1.9373716462e-3 -7.5175762708e-4 4.5692449522e-3
-4.8818179338e-3 1.0642084192e-3 -2.6956403252e-3
2.3654048387e-3 -1.6696392693e-3 -1.3093415234e-3
7.0132615878e-3 3.5901673320e-4 2.8147577984e-4
-4.3618217700e-4 -2.6703558319e-3 -3.1838512804e-3
4.7435875596e-3 -4.2331721157e-3 9.2614602149e-3
-8.2215746833e-4 1.8658015978e-3 -3.5163812539e-3
-1.3717110269e-3 -6.5205034051e-4 1.8129591925e-3
7.7504700966e-4 -1.6178833286e-3 -4.7963809760e-3
-1.3449239322e-3 2.2323598904e-4 3.8209248781e-4
2.3652306697e-3 2.4420615881e-5 -3.2479435456e-4
-4.3037117276e-3 3.0574701416e-3 -4.4167853579e-3
6.6636966637e-3 -3.1083119452e-3 5.8375522895e-3
6.8114092667e-3 -3.0938574427e-3 -1.2690309646e-3
-4.9195201602e-4 -1.3638549436e-3 -1.5618283836e-3
-2.2369314998e-3 -1.0943295633e-3 -8.8997285927e-4
1.3348443788e-3 3.0144370052e-4 2.5846793383e-3
1.4276972220e-3 -5.5050614394e-4 -5.1714993966e-4
-2.1112058089e-3 4.3939414997e-3 -3.8340939674e-4
VECTORS E_imag double
0.0000000000e0 0.0000000000e0 0.0000000000e0
0.0000000000e0 0.0000000000e0 0.0000000000e0
0.0000000000e0 0.0000000000e0 0.0000000000e0
0.0000000000e0 0.0000000000e0 0.0000000000e0
0.0000000000e0 0.0000000000e0 0.0000000000e0
0.0000000000e0 0.0000000000e0 0.0000000000e0
0.0000000000e0 0.0000000000e0 0.0000000000e0
0.0000000000e0 0.0000000000e0 0.0000000000e0
0.0000000000e0 0.0000000000e0 0.0000000000e0
0.0000000000e0 0.0000000000e0 0.0000000000e0
0.0000000000e0 0.0000000000e0 0.0000000000e0
0.0000000000e0 0.0000000000e0 0.0000000000e0
0.0000000000e0 0.0000000000e0 0.0000000000e0
0.0000000000e0 0.0000000000e0 0.0000000000e0
0.0000000000e0 0.0000000000e0 0.0000000000e0
0.0000000000e0 0.0000000000e0 0.0000000000e0
0.0000000000e0 0.0000000000e0 0.0000000000e0
0.0000000000e0 0.0000000000e0 0.0000000000e0
0.0000000000e0 0.0000000000e0 0.0000000000e0
0.0000000000e0 0.0000000000e0 0.0000000000e0
0.0000000000e0 0.0000000000e0 0.0000000000e0
0.0000000000e0 0.0000000000e0 0.0000000000e0
0.0000000000e0 0.0000000000e0 0.0000000000e0
0.0000000000e0 0.0000000000e0 0.0000000000e0
0.0000000000e0 0.0000000000e0 0.0000000000e0
0.0000000000e0 0.0000000000e0 0.0000000000e0
0.0000000000e0 0.0000000000e0 0.0000000000e0
0.0000000000e0 0.0000000000e0 0.0000000000e0
0.0000000000e0 0.0000000000e0 0.0000000000e0
0.0000000000e0 0.0000000000e0 0.0000000000e0
0.0000000000e0 0.0000000000e0 0.0000000000e0
0.0000000000e0 0.0000000000e0 0.0000000000e0
0.0000000000e0 0.0000000000e0 0.0000000000e0
0.0000000000e0 0.0000000000e0 0.0000000000e0
0.0000000000e0 0.0000000000e0 0.0000000000e0
0.0000000000e0 0.0000000000e0 0.0000000000e0
0.0000000000e0 0.0000000000e0 0.0000000000e0
0.0000000000e0 0.0000000000e0 0.0000000000e0
0.0000000000e0 0.0000000000e0 0.0000000000e0
0.0000000000e0 0.0000000000e0 0.0000000000e0
0.0000000000e0 0.0000000000e0 0.0000000000e0
0.0000000000e0 0.0000000000e0 0.0000000000e0
0.0000000000e0 0.0000000000e0 0.0000000000e0
0.0000000000e0 0.0000000000e0 0.0000000000e0
0.0000000000e0 0.0000000000e0 0.0000000000e0
0.0000000000e0 0.0000000000e0 0.0000000000e0
0.0000000000e0 0.0000000000e0 0.0000000000e0
0.0000000000e0 0.0000000000e0 0.0000000000e0
0.0000000000e0 0.0000000000e0 0.0000000000e0
0.0000000000e0 0.0000000000e0 0.0000000000e0
0.0000000000e0 0.0000000000e0 0.0000000000e0
0.0000000000e0 0.0000000000e0 0.0000000000e0
0.0000000000e0 0.0000000000e0 0.0000000000e0
0.0000000000e0 0.0000000000e0 0.0000000000e0
0.0000000000e0 0.0000000000e0 0.0000000000e0
0.0000000000e0 0.0000000000e0 0.0000000000e0
0.0000000000e0 0.0000000000e0 0.0000000000e0
0.0000000000e0 0.0000000000e0 0.0000000000e0
0.0000000000e0 0.0000000000e0 0.0000000000e0
0.0000000000e0 0.0000000000e0 0.0000000000e0
0.0000000000e0 0.0000000000e0 0.0000000000e0
0.0000000000e0 0.0000000000e0 0.0000000000e0
0.0000000000e0 0.0000000000e0 0.0000000000e0
0.0000000000e0 0.0000000000e0 0.0000000000e0
0.0000000000e0 0.0000000000e0 0.0000000000e0
0.0000000000e0 0.0000000000e0 0.0000000000e0
0.0000000000e0 0.0000000000e0 0.0000000000e0
0.0000000000e0 0.0000000000e0 0.0000000000e0
0.0000000000e0 0.0000000000e0 0.0000000000e0
0.0000000000e0 0.0000000000e0 0.0000000000e0
0.0000000000e0 0.0000000000e0 0.0000000000e0
0.0000000000e0 0.0000000000e0 0.0000000000e0
0.0000000000e0 0.0000000000e0 0.0000000000e0
0.0000000000e0 0.0000000000e0 0.0000000000e0
0.0000000000e0 0.0000000000e0 0.0000000000e0
0.0000000000e0 0.0000000000e0 0.0000000000e0
0.0000000000e0 0.0000000000e0 0.0000000000e0
0.0000000000e0 0.0000000000e0 0.0000000000e0
0.0000000000e0 0.0000000000e0 0.0000000000e0
0.0000000000e0 0.0000000000e0 0.0000000000e0
0.0000000000e0 0.0000000000e0 0.0000000000e0
0.0000000000e0 0.0000000000e0 0.0000000000e0
0.0000000000e0 0.0000000000e0 0.0000000000e0
0.0000000000e0 0.0000000000e0 0.0000000000e0
0.0000000000e0 0.0000000000e0 0.0000000000e0
0.0000000000e0 0.0000000000e0 0.0000000000e0
0.0000000000e0 0.0000000000e0 0.0000000000e0
0.0000000000e0 0.0000000000e0 0.0000000000e0
0.0000000000e0 0.0000000000e0 0.0000000000e0
0.0000000000e0 0.0000000000e0 0.0000000000e0
0.0000000000e0 0.0000000000e0 0.0000000000e0
0.0000000000e0 0.0000000000e0 0.0000000000e0
0.0000000000e0 0.0000000000e0 0.0000000000e0
0.0000000000e0 0.0000000000e0 0.0000000000e0
0.0000000000e0 0.0000000000e0 0.0000000000e0
0.0000000000e0 0.0000000000e0 0.0000000000e0
0.0000000000e0 0.0000000000e0 0.0000000000e0
0.0000000000e0 0.0000000000e0 0.0000000000e0
0.0000000000e0 0.0000000000e0 0.0000000000e0
0.0000000000e0 0.0000000000e0 0.0000000000e0
0.0000000000e0 0.0000000000e0 0.0000000000e0
0.0000000000e0 0.0000000000e0 0.0000000000e0
0.0000000000e0 0.0000000000e0 0.0000000000e0
0.0000000000e0 0.0000000000e0 0.0000000000e0
0.0000000000e0 0.0000000000e0 0.0000000000e0
0.0000000000e0 0.0000000000e0 0.0000000000e0
0.0000000000e0 0.0000000000e0 0.0000000000e0
0.0000000000e0 0.0000000000e0 0.0000000000e0
0.0000000000e0 0.0000000000e0 0.0000000000e0
0.0000000000e0 0.0000000000e0 0.0000000000e0
0.0000000000e0 0.0000000000e0 0.0000000000e0
0.0000000000e0 0.0000000000e0 0.0000000000e0
0.0000000000e0 0.0000000000e0 0.0000000000e0
0.0000000000e0 0.0000000000e0 0.0000000000e0
0.0000000000e0 0.0000000000e0 0.0000000000e0
0.0000000000e0 0.0000000000e0 0.0000000000e0
0.0000000000e0 0.0000000000e0 0.0000000000e0
0.0000000000e0 0.0000000000e0 0.0000000000e0
0.0000000000e0 0.0000000000e0 0.0000000000e0
0.0000000000e0 0.0000000000e0 0.0000000000e0
0.0000000000e0 0.0000000000e0 0.0000000000e0
0.0000000000e0 0.0000000000e0 0.0000000000e0
0.0000000000e0 0.0000000000e0 0.0000000000e0
0.0000000000e0 0.0000000000e0 0.0000000000e0
0.0000000000e0 0.0000000000e0 0.0000000000e0
0.0000000000e0 0.0000000000e0 0.0000000000e0
0.0000000000e0 0.0000000000e0 0.0000000000e0
0.0000000000e0 0.0000000000e0 0.0000000000e0
0.0000000000e0 0.0000000000e0 0.0000000000e0
0.0000000000e0 0.0000000000e0 0.0000000000e0
0.0000000000e0 0.0000000000e0 0.0000000000e0
0.0000000000e0 0.0000000000e0 0.0000000000e0
0.0000000000e0 0.0000000000e0 0.0000000000e0
0.0000000000e0 0.0000000000e0 0.0000000000e0
0.0000000000e0 0.0000000000e0 0.0000000000e0
0.0000000000e0 0.0000000000e0 0.0000000000e0
0.0000000000e0 0.0000000000e0 0.0000000000e0
0.0000000000e0 0.0000000000e0 0.0000000000e0
0.0000000000e0 0.0000000000e0 0.0000000000e0
0.0000000000e0 0.0000000000e0 0.0000000000e0
0.0000000000e0 0.0000000000e0 0.0000000000e0
0.0000000000e0 0.0000000000e0 0.0000000000e0
0.0000000000e0 0.0000000000e0 0.0000000000e0
0.0000000000e0 0.0000000000e0 0.0000000000e0
0.0000000000e0 0.0000000000e0 0.0000000000e0
0.0000000000e0 0.0000000000e0 0.0000000000e0
0.0000000000e0 0.0000000000e0 0.0000000000e0
0.0000000000e0 0.0000000000e0 0.0000000000e0
0.0000000000e0 0.0000000000e0 0.0000000000e0
0.0000000000e0 0.0000000000e0 0.0000000000e0
0.0000000000e0 0.0000000000e0 0.0000000000e0
0.0000000000e0 0.0000000000e0 0.0000000000e0
0.0000000000e0 0.0000000000e0 0.0000000000e0
0.0000000000e0 0.0000000000e0 0.0000000000e0
0.0000000000e0 0.0000000000e0 0.0000000000e0
0.0000000000e0 0.0000000000e0 0.0000000000e0
0.0000000000e0 0.0000000000e0 0.0000000000e0
0.0000000000e0 0.0000000000e0 0.0000000000e0
0.0000000000e0 0.0000000000e0 0.0000000000e0
0.0000000000e0 0.0000000000e0 0.0000000000e0
0.0000000000e0 0.0000000000e0 0.0000000000e0
0.0000000000e0 0.0000000000e0 0.0000000000e0
0.0000000000e0 0.0000000000e0 0.0000000000e0
0.0000000000e0 0.0000000000e0 0.0000000000e0
0.0000000000e0 0.0000000000e0 0.0000000000e0
0.0000000000e0 0.0000000000e0 0.0000000000e0
0.0000000000e0 0.0000000000e0 0.0000000000e0
0.0000000000e0 0.0000000000e0 0.0000000000e0
0.0000000000e0 0.0000000000e0 0.0000000000e0
0.0000000000e0 0.0000000000e0 0.0000000000e0
0.0000000000e0 0.0000000000e0 0.0000000000e0
0.0000000000e0 0.0000000000e0 0.0000000000e0
0.0000000000e0 0.0000000000e0 0.0000000000e0
0.0000000000e0 0.0000000000e0 0.0000000000e0
0.0000000000e0 0.0000000000e0 0.0000000000e0
0.0000000000e0 0.0000000000e0 0.0000000000e0