# vtk DataFile Version 3.0
RapidFEM Mode 3 f=9.2827GHz
ASCII
DATASET UNSTRUCTURED_GRID
POINTS 242 double
0.0000000000e0 0.0000000000e0 1.0160000000e-2
0.0000000000e0 0.0000000000e0 0.0000000000e0
0.0000000000e0 3.0000000000e-2 1.0160000000e-2
0.0000000000e0 3.0000000000e-2 0.0000000000e0
2.2860000000e-2 0.0000000000e0 1.0160000000e-2
2.2860000000e-2 0.0000000000e0 0.0000000000e0
2.2860000000e-2 3.0000000000e-2 1.0160000000e-2
2.2860000000e-2 3.0000000000e-2 0.0000000000e0
0.0000000000e0 0.0000000000e0 3.3866666667e-3
0.0000000000e0 0.0000000000e0 6.7733333333e-3
0.0000000000e0 3.7500000000e-3 1.0160000000e-2
0.0000000000e0 7.5000000000e-3 1.0160000000e-2
0.0000000000e0 1.1250000000e-2 1.0160000000e-2
0.0000000000e0 1.5000000000e-2 1.0160000000e-2
0.0000000000e0 1.8750000000e-2 1.0160000000e-2
0.0000000000e0 2.2500000000e-2 1.0160000000e-2
0.0000000000e0 2.6250000000e-2 1.0160000000e-2
0.0000000000e0 3.0000000000e-2 3.3866666667e-3
0.0000000000e0 3.0000000000e-2 6.7733333333e-3
0.0000000000e0 3.7500000000e-3 0.0000000000e0
0.0000000000e0 7.5000000000e-3 0.0000000000e0
0.0000000000e0 1.1250000000e-2 0.0000000000e0
0.0000000000e0 1.5000000000e-2 0.0000000000e0
0.0000000000e0 1.8750000000e-2 0.0000000000e0
0.0000000000e0 2.2500000000e-2 0.0000000000e0
0.0000000000e0 2.6250000000e-2 0.0000000000e0
2.2860000000e-2 0.0000000000e0 3.3866666667e-3
2.2860000000e-2 0.0000000000e0 6.7733333333e-3
2.2860000000e-2 3.7500000000e-3 1.0160000000e-2
2.2860000000e-2 7.5000000000e-3 1.0160000000e-2
2.2860000000e-2 1.1250000000e-2 1.0160000000e-2
2.2860000000e-2 1.5000000000e-2 1.0160000000e-2
2.2860000000e-2 1.8750000000e-2 1.0160000000e-2
2.2860000000e-2 2.2500000000e-2 1.0160000000e-2
2.2860000000e-2 2.6250000000e-2 1.0160000000e-2
2.2860000000e-2 3.0000000000e-2 3.3866666667e-3
2.2860000000e-2 3.0000000000e-2 6.7733333333e-3
2.2860000000e-2 3.7500000000e-3 0.0000000000e0
2.2860000000e-2 7.5000000000e-3 0.0000000000e0
2.2860000000e-2 1.1250000000e-2 0.0000000000e0
2.2860000000e-2 1.5000000000e-2 0.0000000000e0
2.2860000000e-2 1.8750000000e-2 0.0000000000e0
2.2860000000e-2 2.2500000000e-2 0.0000000000e0
2.2860000000e-2 2.6250000000e-2 0.0000000000e0
3.8100000000e-3 0.0000000000e0 0.0000000000e0
7.6200000000e-3 0.0000000000e0 0.0000000000e0
1.1430000000e-2 0.0000000000e0 0.0000000000e0
1.5240000000e-2 0.0000000000e0 0.0000000000e0
1.9050000000e-2 0.0000000000e0 0.0000000000e0
3.8100000000e-3 0.0000000000e0 1.0160000000e-2
7.6200000000e-3 0.0000000000e0 1.0160000000e-2
1.1430000000e-2 0.0000000000e0 1.0160000000e-2
1.5240000000e-2 0.0000000000e0 1.0160000000e-2
1.9050000000e-2 0.0000000000e0 1.0160000000e-2
3.8100000000e-3 3.0000000000e-2 0.0000000000e0
7.6200000000e-3 3.0000000000e-2 0.0000000000e0
1.1430000000e-2 3.0000000000e-2 0.0000000000e0
1.5240000000e-2 3.0000000000e-2 0.0000000000e0
1.9050000000e-2 3.0000000000e-2 0.0000000000e0
3.8100000000e-3 3.0000000000e-2 1.0160000000e-2
7.6200000000e-3 3.0000000000e-2 1.0160000000e-2
1.1430000000e-2 3.0000000000e-2 1.0160000000e-2
1.5240000000e-2 3.0000000000e-2 1.0160000000e-2
1.9050000000e-2 3.0000000000e-2 1.0160000000e-2
0.0000000000e0 2.7067060633e-2 5.0800000000e-3
0.0000000000e0 2.9329393675e-3 5.0800000000e-3
0.0000000000e0 2.0607895740e-2 3.4149433368e-3
0.0000000000e0 1.3125000000e-2 3.2475952642e-3
0.0000000000e0 1.6875000000e-2 6.9124047358e-3
0.0000000000e0 9.3921042596e-3 6.7450566632e-3
0.0000000000e0 2.0575689701e-2 7.5387577184e-3
0.0000000000e0 1.6874109524e-2 3.0751560233e-3
0.0000000000e0 1.3125890476e-2 7.0848439767e-3
0.0000000000e0 9.4243102990e-3 2.6212422816e-3
0.0000000000e0 5.3249758464e-3 7.1684469476e-3
0.0000000000e0 2.4675024154e-2 2.9915530524e-3
0.0000000000e0 2.4145552764e-2 7.0464405194e-3
0.0000000000e0 5.8544472356e-3 3.1135594806e-3
0.0000000000e0 2.7479635784e-2 7.7520655419e-3
0.0000000000e0 2.7479635784e-2 2.4079344581e-3
0.0000000000e0 2.5203642158e-3 7.7520655419e-3
0.0000000000e0 2.5203642158e-3 2.4079344581e-3
2.2860000000e-2 2.7067060633e-2 5.0800000000e-3
2.2860000000e-2 2.9329393675e-3 5.0800000000e-3
2.2860000000e-2 2.0607895740e-2 3.4149433368e-3
2.2860000000e-2 1.3125000000e-2 3.2475952642e-3
2.2860000000e-2 1.6875000000e-2 6.9124047358e-3
2.2860000000e-2 9.3921042596e-3 6.7450566632e-3
2.2860000000e-2 2.0575689701e-2 7.5387577184e-3
2.2860000000e-2 1.6874109524e-2 3.0751560233e-3
2.2860000000e-2 1.3125890476e-2 7.0848439767e-3
2.2860000000e-2 9.4243102990e-3 2.6212422816e-3
2.2860000000e-2 5.3249758464e-3 7.1684469476e-3
2.2860000000e-2 2.4675024154e-2 2.9915530524e-3
2.2860000000e-2 2.4145552764e-2 7.0464405194e-3
2.2860000000e-2 5.8544472356e-3 3.1135594806e-3
2.2860000000e-2 2.7479635784e-2 2.4079344581e-3
2.2860000000e-2 2.7479635784e-2 7.7520655419e-3
2.2860000000e-2 2.5203642158e-3 7.7520655419e-3
2.2860000000e-2 2.5203642158e-3 2.4079344581e-3
2.9329393675e-3 0.0000000000e0 5.0800000000e-3
1.9927060633e-2 0.0000000000e0 5.0800000000e-3
9.5250000000e-3 0.0000000000e0 3.2995567884e-3
1.3335000000e-2 0.0000000000e0 6.8604432116e-3
1.3288060349e-2 0.0000000000e0 2.6642308317e-3
9.5719396507e-3 0.0000000000e0 7.4957691683e-3
1.7465697863e-2 0.0000000000e0 7.1978653226e-3
5.3943021370e-3 0.0000000000e0 2.9621346774e-3
1.6910301746e-2 0.0000000000e0 3.1611541587e-3
5.9496982536e-3 0.0000000000e0 6.9988458413e-3
2.5281752011e-3 0.0000000000e0 7.7655945654e-3
2.5281752011e-3 0.0000000000e0 2.3944054346e-3
2.0331824799e-2 0.0000000000e0 7.7655945654e-3
2.0331824799e-2 0.0000000000e0 2.3944054346e-3
2.9329393675e-3 3.0000000000e-2 5.0800000000e-3
1.9927060633e-2 3.0000000000e-2 5.0800000000e-3
9.5250000000e-3 3.0000000000e-2 3.2995567884e-3
1.3335000000e-2 3.0000000000e-2 6.8604432116e-3
1.3288060349e-2 3.0000000000e-2 2.6642308317e-3
9.5719396507e-3 3.0000000000e-2 7.4957691683e-3
1.7465697863e-2 3.0000000000e-2 7.1978653226e-3
5.3943021370e-3 3.0000000000e-2 2.9621346774e-3
1.6910301746e-2 3.0000000000e-2 3.1611541587e-3
5.9496982536e-3 3.0000000000e-2 6.9988458413e-3
2.5281752011e-3 3.0000000000e-2 7.7655945654e-3
2.5281752011e-3 3.0000000000e-2 2.3944054346e-3
2.0331824799e-2 3.0000000000e-2 7.7655945654e-3
2.0331824799e-2 3.0000000000e-2 2.3944054346e-3
3.0032597289e-3 1.7053382250e-2 0.0000000000e0
1.9374906205e-2 1.3140168730e-2 0.0000000000e0
1.3292324977e-2 2.6390097520e-2 0.0000000000e0
9.5349916220e-3 3.2987589966e-3 0.0000000000e0
1.9282143073e-2 2.0260904772e-2 0.0000000000e0
3.3990631681e-3 9.0777329865e-3 0.0000000000e0
1.6993391798e-2 3.2075459795e-3 0.0000000000e0
5.5706840137e-3 2.6774551281e-2 0.0000000000e0
1.3312591326e-2 3.2785812089e-3 0.0000000000e0
1.1435229781e-2 6.5801018339e-3 0.0000000000e0
7.0221190436e-3 6.8767844285e-3 0.0000000000e0
9.5482210217e-3 9.8627330247e-3 0.0000000000e0
1.3329378341e-2 9.8552977906e-3 0.0000000000e0
1.1442663086e-2 1.3123500598e-2 0.0000000000e0
7.7150351477e-3 1.3129967350e-2 0.0000000000e0
9.6645250455e-3 1.6332769384e-2 0.0000000000e0
1.3347048630e-2 1.6371376085e-2 0.0000000000e0
1.1441262234e-2 1.9616869481e-2 0.0000000000e0
8.0656326056e-3 1.9396484399e-2 0.0000000000e0
9.7574291791e-3 2.2918228652e-2 0.0000000000e0
1.5170836301e-2 1.9788578707e-2 0.0000000000e0
1.7106992305e-2 1.6592316327e-2 0.0000000000e0
1.6701906859e-2 2.3314854219e-2 0.0000000000e0
5.6802354321e-3 3.1827773814e-3 0.0000000000e0
1.5200355414e-2 6.5624135570e-3 0.0000000000e0
1.7104311409e-2 9.8670221071e-3 0.0000000000e0
1.9330824752e-2 6.1670243647e-3 0.0000000000e0
9.2384056136e-3 2.6583295217e-2 0.0000000000e0
1.5284216663e-2 1.3158280273e-2 0.0000000000e0
3.8333502594e-3 1.3112028103e-2 0.0000000000e0
2.9169526120e-3 2.0658918312e-2 0.0000000000e0
1.7211032325e-2 2.6909153486e-2 0.0000000000e0
3.0282716898e-3 2.4278122460e-2 0.0000000000e0
3.1513738996e-3 5.6064197490e-3 0.0000000000e0
1.3272751910e-2 2.2405725716e-2 0.0000000000e0
1.9926363821e-2 2.4391666377e-2 0.0000000000e0
6.1886758944e-3 2.2696242807e-2 0.0000000000e0
6.3313909733e-3 1.6128987380e-2 0.0000000000e0
2.0270458824e-2 1.6842117338e-2 0.0000000000e0
6.3399109015e-3 1.0257232482e-2 0.0000000000e0
2.0306008473e-2 9.5848430404e-3 0.0000000000e0
2.8124266069e-3 2.7969454326e-3 0.0000000000e0
2.0060936205e-2 2.7833688157e-3 0.0000000000e0
2.7164751199e-3 2.7280121283e-2 0.0000000000e0
2.0259599042e-2 2.7402075216e-2 0.0000000000e0
5.3011823629e-3 1.9186803030e-2 0.0000000000e0
3.4850937950e-3 1.6859831270e-2 1.0160000000e-2
1.9856740271e-2 1.2946617750e-2 1.0160000000e-2
1.3325008378e-2 2.6701241003e-2 1.0160000000e-2
9.5676750235e-3 3.6099024795e-3 1.0160000000e-2
1.9460936832e-2 2.0922267013e-2 1.0160000000e-2
3.5778569271e-3 9.7390952284e-3 1.0160000000e-2
1.7289315986e-2 3.2254487189e-3 1.0160000000e-2
5.8666082021e-3 2.6792454020e-2 1.0160000000e-2
9.5474086744e-3 2.6721418791e-2 1.0160000000e-2
1.1424770219e-2 2.3419898166e-2 1.0160000000e-2
1.5837880956e-2 2.3123215571e-2 1.0160000000e-2
1.3311778978e-2 2.0137266975e-2 1.0160000000e-2
9.5306216592e-3 2.0144702209e-2 1.0160000000e-2
1.1417336914e-2 1.6876499402e-2 1.0160000000e-2
1.5144964852e-2 1.6870032650e-2 1.0160000000e-2
1.3195474954e-2 1.3667230616e-2 1.0160000000e-2
9.5129513703e-3 1.3628623915e-2 1.0160000000e-2
1.1418737766e-2 1.0383130519e-2 1.0160000000e-2
1.4794367394e-2 1.0603515601e-2 1.0160000000e-2
1.3102570821e-2 7.0817713478e-3 1.0160000000e-2
7.6891636986e-3 1.0211421293e-2 1.0160000000e-2
5.7530076952e-3 1.3407683673e-2 1.0160000000e-2
6.1580931408e-3 6.6851457810e-3 1.0160000000e-2
1.7179764568e-2 2.6817222619e-2 1.0160000000e-2
7.6596445855e-3 2.3437586443e-2 1.0160000000e-2
5.7556885912e-3 2.0132977893e-2 1.0160000000e-2
3.5291752478e-3 2.3832975635e-2 1.0160000000e-2
1.3621594386e-2 3.4167047832e-3 1.0160000000e-2
7.5757833375e-3 1.6841719727e-2 1.0160000000e-2
1.9943047388e-2 9.3410816876e-3 1.0160000000e-2
1.9026649741e-2 1.6887971897e-2 1.0160000000e-2
5.6489676750e-3 3.0908465141e-3 1.0160000000e-2
1.9831728310e-2 5.7218775397e-3 1.0160000000e-2
1.9708626100e-2 2.4393580251e-2 1.0160000000e-2
9.5872480899e-3 7.5942742841e-3 1.0160000000e-2
[...]
POINT_DATA 242
VECTORS E_real double
0.0000000000e0 0.0000000000e0 0.0000000000e0
0.0000000000e0 0.0000000000e0 0.0000000000e0
-1.9231350327e-17 -8.8996086596e-18 -1.7039747172e-17
-4.2983057222e-19 -2.4449319098e-18 -2.9919847180e-18
5.3739012273e-18 2.9908921131e-18 -8.4828956507e-18
5.5626227855e-18 -2.4743947268e-19 2.5899276055e-19
1.0373087016e-16 2.3220215735e-17 1.6782250837e-16
1.5414041159e-17 -1.8173669345e-18 -7.0382511641e-17
0.0000000000e0 0.0000000000e0 0.0000000000e0
0.0000000000e0 0.0000000000e0 0.0000000000e0
-9.1290264678e-20 0.0000000000e0 0.0000000000e0
0.0000000000e0 0.0000000000e0 4.2076942807e-18
3.2296944104e-18 0.0000000000e0 0.0000000000e0
1.0468672368e-18 0.0000000000e0 0.0000000000e0
-3.3746232049e-18 4.9903862637e-19 8.8148206846e-19
-6.2378782858e-18 1.2253768376e-18 -8.5428872076e-18
1.3030376996e-17 0.0000000000e0 0.0000000000e0
-9.8092286260e-18 1.8363139394e-17 -6.9979664127e-18
-1.0954326401e-17 4.0466777053e-17 4.7955226110e-19
0.0000000000e0 0.0000000000e0 0.0000000000e0
0.0000000000e0 0.0000000000e0 0.0000000000e0
0.0000000000e0 0.0000000000e0 0.0000000000e0
0.0000000000e0 0.0000000000e0 0.0000000000e0
0.0000000000e0 0.0000000000e0 1.1729671149e-17
0.0000000000e0 0.0000000000e0 4.6883917451e-18
0.0000000000e0 0.0000000000e0 8.7043044968e-18
0.0000000000e0 6.0989567044e-18 0.0000000000e0
0.0000000000e0 -7.1810753895e-18 0.0000000000e0
5.5313742601e-17 -8.7704553627e-18 3.5794024106e-17
-4.3593046471e-17 6.7890124069e-18 5.9625870507e-17
-8.2166023998e-18 -6.4622413345e-32 1.3187362586e-16
4.7513581450e-17 5.1149730829e-17 -1.6142998463e-16
9.6991780955e-18 -6.1254116696e-18 -1.7420507467e-17
-4.7061253628e-17 -4.1244981076e-18 -8.3617155417e-17
4.4009393419e-17 -1.3870077284e-30 1.3061758783e-16
1.5541723561e-17 -3.1835003069e-17 -4.8402300351e-18
8.4956710613e-17 7.2916539828e-17 1.8602588565e-17
3.2805853394e-18 0.0000000000e0 4.9978244017e-33
0.0000000000e0 0.0000000000e0 1.1453663994e-17
0.0000000000e0 0.0000000000e0 2.0483734864e-18
-3.5270241262e-17 -7.2714881018e-18 5.8190314264e-17
3.8848600828e-17 -3.4441725294e-18 -2.6649493851e-17
0.0000000000e0 0.0000000000e0 -1.8533541801e-17
4.6402889819e-17 8.4284021534e-18 -5.9900942221e-17
0.0000000000e0 0.0000000000e0 0.0000000000e0
0.0000000000e0 0.0000000000e0 0.0000000000e0
0.0000000000e0 0.0000000000e0 -2.2090699289e-19
0.0000000000e0 0.0000000000e0 0.0000000000e0
0.0000000000e0 0.0000000000e0 0.0000000000e0
-1.1431638950e-18 1.4872008044e-18 6.1198317070e-19
0.0000000000e0 0.0000000000e0 0.0000000000e0
0.0000000000e0 2.6188102044e-18 0.0000000000e0
1.0510249145e-17 4.4476756557e-17 6.2354166891e-19
0.0000000000e0 -1.3410144022e-18 0.0000000000e0
-4.2564069905e-18 6.1956128226e-18 -9.3302937097e-18
0.0000000000e0 0.0000000000e0 -6.3585699112e-18
0.0000000000e0 0.0000000000e0 9.2467050815e-18
0.0000000000e0 0.0000000000e0 8.1585182964e-18
0.0000000000e0 0.0000000000e0 2.0746442242e-17
-2.2650781293e-18 -3.4934827712e-17 3.1651612443e-17
-3.8574249766e-18 4.3319751421e-17 5.7099296251e-17
-1.5521463810e-17 5.7521113174e-17 -9.9106050706e-17
-5.7330662822e-18 6.3363535293e-17 -3.9795469557e-17
2.8882820184e-17 -1.5812541370e-16 1.8541153368e-16
-3.6002511030e-3 -3.9816454321e-4 -6.1477832129e-5
-2.7905677324e-3 4.1650255429e-5 6.4309277536e-6
-3.8031416268e-4 1.2023351499e-4 -8.0402839253e-4
-3.1670855410e-3 1.3651329640e-3 -4.5795628629e-4
-3.2614675069e-3 3.9602785411e-4 -2.3398566651e-3
-1.0320135994e-3 -3.8513737847e-5 -3.6996672634e-4
-3.1581001321e-3 1.4144068496e-4 7.1440438615e-4
-2.6643435388e-3 1.5831614283e-3 2.7713435596e-4
-2.0582418684e-3 9.8302143014e-4 5.5745991973e-4
-4.2462928050e-3 -1.1091298268e-3 -1.5238223955e-4
-1.0711693133e-3 -1.1611771183e-3 8.4792815821e-4
-3.1088175377e-3 7.0442172702e-5 6.7667438913e-4
-1.1857863867e-3 -2.2423964983e-5 -1.6259940641e-4
-3.5204160548e-3 -4.9687813036e-4 2.3477525376e-3
-3.9921712496e-3 -4.2014106189e-4 7.3564046010e-4
-1.2548200161e-3 9.5217291288e-4 -4.4083680447e-4
-2.4922857078e-3 2.1740329314e-3 -3.1448469786e-3
-1.1187891259e-3 -4.2687000753e-4 1.2135342564e-3
1.3021344343e-3 -2.2527004129e-4 -3.4782388383e-5
7.7832073699e-4 4.4474713501e-3 6.8670327814e-4
5.5455803379e-3 2.3443578289e-4 2.2520130213e-3
4.1223630471e-3 -5.7819549381e-4 3.4161601662e-3
4.2117781313e-3 4.1730523193e-3 -5.0337659453e-4
1.4937703263e-3 5.7174301789e-4 2.7667856468e-4
1.7088994840e-3 1.6807303242e-3 1.1790557881e-3
2.2732211869e-3 5.7844559458e-18 1.3855094647e-17
8.5541537442e-4 2.8828038925e-5 -3.1677973278e-4
1.9463306909e-3 -7.2986935158e-4 -1.4355315896e-3
3.0068486063e-3 -4.2603063907e-5 -4.0924919176e-4
2.7360315610e-3 2.8456880142e-3 2.7002993135e-4
3.3191696109e-3 3.8821834522e-4 -1.8343343155e-3
7.1614918605e-4 -5.0570907344e-5 -3.6669694775e-4
1.7971223372e-3 -2.2618822406e-4 9.0546958060e-5
-1.0722815281e-4 -4.7554516274e-3 2.3642700727e-3
3.0105436994e-3 -1.3329842427e-4 -2.6201745637e-4
4.3331726384e-3 1.2386174868e-3 6.3813138800e-3
-8.2957730456e-3 -3.3060476514e-4 -1.2503122044e-3
6.2963360072e-3 -3.4400575570e-4 -9.4896349137e-4
-4.2929241521e-4 -1.4088695059e-4 4.8021487472e-6
-1.3429825959e-5 -1.0804932563e-3 -7.9545381442e-5
1.7076840505e-3 -3.5676738351e-3 -1.0584044093e-4
-4.3385093698e-4 -5.6008529992e-4 6.2498810814e-4
-3.0688066541e-3 -3.4913273317e-3 -8.8438829034e-4
3.2349641862e-5 -2.4890798532e-3 -3.9602205112e-4
3.0136213147e-4 -3.1160086163e-3 1.3447919084e-3
2.8244344196e-4 -4.2299275600e-3 -2.0588253203e-3
-8.4651960694e-3 -1.7814410102e-3 -2.2036025656e-3
-3.1094687407e-3 -1.7309693745e-4 4.6864911736e-4
6.4990803046e-3 -1.5811206330e-3 -9.7952045911e-4
1.4793366935e-3 3.9935344111e-4 2.2296086358e-4
-4.2476349627e-3 9.8635839707e-5 6.4018986591e-4
7.1339013983e-3 5.0973536912e-5 1.0751986505e-3
-6.4826243215e-5 -1.0193419979e-5 -3.8396835966e-4
3.7732312100e-4 3.6423405373e-4 -4.2208100786e-6
-2.9600759930e-4 3.1493190126e-3 -1.3269378031e-3
-1.1384818439e-3 4.2897741654e-3 -4.2247917752e-4
-2.3356952224e-5 1.7461336522e-3 2.8593417408e-4
-1.2714327745e-3 1.4023757213e-3 -1.2289301361e-4
-2.0550908180e-4 4.5216181285e-3 1.4980248726e-3
-2.2029788805e-4 2.8000572097e-3 -9.8305256813e-4
-7.2099343058e-3 1.1892257746e-3 -1.0866580855e-3
-2.2183823955e-3 3.9307098736e-4 3.3434745236e-4
3.9988998495e-3 3.2644169270e-3 -6.0270131048e-4
5.1824317444e-3 1.6681152363e-3 1.5684334635e-3
-7.4549047894e-3 -1.5700811551e-3 -2.3092933327e-3
0.0000000000e0 0.0000000000e0 -2.2707107976e-3
-1.9079152061e-3 4.8406057212e-3 -1.2128071571e-3
1.3686012348e-3 -3.9523106395e-3 -2.6716410024e-4
-3.3714547718e-4 2.9346432213e-3 -5.5627810313e-3
-7.6548178874e-4 8.2403207962e-5 -4.6016091871e-4
6.8700843664e-4 3.6717727129e-4 -9.1586158704e-4
-2.1056357727e-3 4.1412250261e-3 -1.9134682624e-3
-2.2590888040e-5 -4.2293700948e-3 -1.9975014596e-3
-1.6449636179e-3 9.5133406023e-4 -1.1107198777e-3
-2.8337086780e-4 -1.9901336554e-4 -3.4187491187e-3
-1.0828305303e-7 -5.5066895335e-5 -2.4865453533e-3
2.2360144331e-6 1.1371158210e-3 -1.7742310306e-3
8.8135265874e-4 -5.1677943587e-4 -1.6865646534e-4
4.1911500508e-3 1.9336517577e-3 -1.9073151582e-3
-4.9366865770e-5 8.0746277306e-4 -3.3674067986e-3
5.9623994718e-4 3.5947168499e-4 -1.4410437562e-3
-1.8356236141e-3 -1.0778966662e-3 -2.0832940878e-3
-1.2968430942e-4 1.7097647830e-3 -3.7414975603e-3
5.6457592045e-4 -2.7121435827e-4 -3.0985952968e-3
1.3322274132e-3 -5.7843868463e-4 -1.3980249848e-3
0.0000000000e0 0.0000000000e0 -2.0208015552e-3
-5.5912623482e-4 2.7604462576e-4 -3.9906221236e-3
0.0000000000e0 0.0000000000e0 -4.3710066977e-3
5.9580085055e-4 3.1843063181e-4 -1.7433006434e-3
-4.3751535892e-6 -4.9641940382e-5 -1.7561768951e-3
1.0156020151e-2 -2.8977504253e-3 -1.1756756215e-3
1.2513761523e-4 2.3997667002e-3 -3.6011910236e-3
-1.7822371290e-3 7.8820054074e-4 -3.4244672541e-3
0.0000000000e0 0.0000000000e0 -1.6715770806e-3
-1.5780281548e-4 -2.5557656511e-4 -2.6273493712e-3
-6.6542906730e-4 4.1154706376e-3 -5.7344565931e-4
-4.3708116492e-3 1.3443693745e-4 -7.1687983739e-4
3.2983260919e-4 -1.0049854117e-3 -1.6006816579e-3
0.0000000000e0 0.0000000000e0 -2.0370572710e-3
3.0885796424e-3 -3.8118271629e-3 -2.5934143325e-3
0.0000000000e0 0.0000000000e0 -1.9522393645e-3
1.5069623167e-3 6.9526032167e-4 -3.5380276679e-3
2.1129570342e-5 -2.8678856155e-5 2.9746493469e-3
0.0000000000e0 0.0000000000e0 -4.3782657409e-3
2.2724823900e-3 3.4262736197e-4 -1.5376882605e-4
-4.7734972521e-3 -5.6546407079e-3 -2.5846371415e-4
4.2774628510e-3 -5.9784134395e-3 -2.4008382772e-4
-8.7853955867e-4 1.4891067005e-3 -1.0499795769e-4
3.6494968907e-3 5.0059837453e-3 -5.3100710483e-4
-1.0510605219e-3 -1.7022917944e-3 -2.6332470391e-3
-6.7652219522e-19 3.3021678185e-18 8.1840833466e-4
3.5093660743e-18 -2.7075944336e-17 2.4636394220e-3
-2.1840942488e-3 5.2494053922e-3 -1.3442734064e-4
7.3342419541e-4 -2.8180859948e-3 4.3859163027e-4
2.3197432409e-3 -2.4971761250e-4 3.2761812917e-4
-2.1019056829e-4 1.8295791229e-3 1.0437562703e-3
6.7659686057e-4 -5.2465280609e-4 3.1058203837e-4
-1.1341263294e-3 -6.0614308167e-4 2.4199749742e-3
1.4471404561e-5 2.7092748887e-3 2.6270930838e-3
2.1396830458e-3 -1.2374458240e-3 1.1377162656e-3
-2.8691314867e-3 -2.0150113446e-3 1.3272873107e-3
-1.0201712257e-6 -5.1880382512e-4 -9.1929718008e-4
-2.0110958379e-6 -1.0227344069e-3 -1.7824767920e-4
-1.9786049447e-4 1.1601512028e-4 2.4434923006e-3
-6.7072832437e-3 -3.0945086376e-3 5.2481200551e-4
2.2642184124e-5 -3.7034396442e-4 2.8693759561e-3
-8.9315673440e-4 -5.3848212919e-4 -6.9350012071e-4
1.9069439154e-3 1.1197766651e-3 1.0929947394e-3
5.4060095383e-5 -7.1273115201e-4 3.9316439818e-3
-6.6121872965e-4 3.1764020912e-4 7.0104180788e-4
-4.0449057471e-4 1.7562541774e-4 8.4184639742e-5
-1.5447624328e-17 -4.9183877905e-17 1.0242306349e-3
-4.4715407110e-3 -2.2438226130e-3 9.5676122531e-4
-3.4851136637e-17 -9.7937356149e-18 3.4049091864e-3
-7.3598103942e-4 -3.9335107892e-4 1.2341572375e-3
-1.8390536067e-5 -2.0866510773e-4 3.0644906911e-4
-3.0474731242e-3 8.6951546082e-4 2.3022416675e-3
-4.5023124949e-4 -8.6340942162e-3 2.3695991070e-3
1.5179026105e-3 8.8046090645e-4 2.3973858838e-3
-1.3087276037e-4 -2.1196079715e-4 4.2083947682e-3
-2.2159595664e-17 -1.8010647798e-17 9.0569063904e-4
4.2493133355e-4 -2.6280673811e-3 2.1486547549e-4
5.6576016445e-3 -1.7401588067e-4 5.3888017668e-4
-5.0523335811e-4 1.5394237569e-3 8.6138670717e-5
8.4790761105e-18 -4.1887638634e-18 1.3112668456e-3
-2.5973241847e-3 -2.5826244594e-3 1.2441734897e-4
-1.3792412262e-17 -2.5348689116e-17 1.7558609660e-3
-2.7995218138e-3 -1.2916025937e-3 -1.9919553313e-3
-3.7438554599e-3 -1.0822876223e-3 7.3564175507e-4
2.2164992799e-17 -1.1919029147e-17 -1.1881625449e-3
-5.9101771640e-3 -2.9587632347e-3 -2.4104173877e-4
4.2949801411e-3 3.9132473449e-3 6.4172788109e-4
1.4573708884e-3 -2.8147901850e-3 4.9682959120e-6
-3.6051531660e-3 3.9424532603e-3 -1.8222333673e-4
-1.1753485857e-3 -1.2342246712e-3 2.0289044603e-4
7.7067290831e-4 1.2481775698e-3 2.4627417910e-3
1.6265700261e-3 8.7068697785e-4 3.6379917296e-3
-2.3438135362e-3 -8.4862124353e-4 -6.3654101381e-3
4.2799667864e-3 -6.4817297891e-4 -8.4385550082e-3
-1.9862638347e-3 -8.8262709209e-4 4.4531305771e-3
-5.5274874953e-3 9.0976461416e-4 -3.1066664651e-3
2.7215899710e-3 -1.6295965266e-3 -1.7669956901e-3
7.9323309264e-3 2.4953797949e-4 -9.5225426609e-5
-4.3417865512e-4 -2.7747033255e-3 -3.7069067529e-3
5.2245582166e-3 -4.6895066897e-3 9.6080160754e-3
-9.8274609761e-4 1.9540914996e-3 -4.0615151171e-3
-1.5933233675e-3 -7.6817852534e-4 1.2424054326e-3
7.8796028816e-4 -1.6421839806e-3 -5.1512632146e-3
-1.7601858969e-3 1.6776852216e-4 -1.2006868027e-4
2.8414939638e-3 1.3957210784e-4 -3.0100709235e-4
-4.7786388499e-3 3.3710959978e-3 -5.5172919043e-3
7.4685745013e-3 -3.3781600453e-3 6.1446450301e-3
7.6074238823e-3 -3.4870395105e-3 -1.9560120779e-3
-4.5978448901e-4 -1.6992174625e-3 -1.9308392930e-3
-2.5662293889e-3 -1.0779543885e-3 -1.3062214567e-3
1.5328872092e-3 1.5980778594e-4 2.7846605495e-3
1.5364620192e-3 -6.0159672235e-4 -7.9816170868e-4
-2.2300084080e-3 4.7252325276e-3 -5.7184003964e-4
VECTORS E_imag double
0.0000000000e0 0.0000000000e0 0.0000000000e0
0.0000000000e0 0.0000000000e0 0.0000000000e0
0.0000000000e0 0.0000000000e0 0.0000000000e0
0.0000000000e0 0.0000000000e0 0.0000000000e0
0.0000000000e0 0.0000000000e0 0.0000000000e0
0.0000000000e0 0.0000000000e0 0.0000000000e0
0.0000000000e0 0.0000000000e0 0.0000000000e0
0.0000000000e0 0.0000000000e0 0.0000000000e0
0.0000000000e0 0.0000000000e0 0.0000000000e0
0.0000000000e0 0.0000000000e0 0.0000000000e0
0.0000000000e0 0.0000000000e0 0.0000000000e0
0.0000000000e0 0.0000000000e0 0.0000000000e0
0.0000000000e0 0.0000000000e0 0.0000000000e0
0.0000000000e0 0.0000000000e0 0.0000000000e0
0.0000000000e0 0.0000000000e0 0.0000000000e0
0.0000000000e0 0.0000000000e0 0.0000000000e0
0.0000000000e0 0.0000000000e0 0.0000000000e0
0.0000000000e0 0.0000000000e0 0.0000000000e0
0.0000000000e0 0.0000000000e0 0.0000000000e0
0.0000000000e0 0.0000000000e0 0.0000000000e0
0.0000000000e0 0.0000000000e0 0.0000000000e0
0.0000000000e0 0.0000000000e0 0.0000000000e0
0.0000000000e0 0.0000000000e0 0.0000000000e0
0.0000000000e0 0.0000000000e0 0.0000000000e0
0.0000000000e0 0.0000000000e0 0.0000000000e0
0.0000000000e0 0.0000000000e0 0.0000000000e0
0.0000000000e0 0.0000000000e0 0.0000000000e0
0.0000000000e0 0.0000000000e0 0.0000000000e0
0.0000000000e0 0.0000000000e0 0.0000000000e0
0.0000000000e0 0.0000000000e0 0.0000000000e0
0.0000000000e0 0.0000000000e0 0.0000000000e0
0.0000000000e0 0.0000000000e0 0.0000000000e0
0.0000000000e0 0.0000000000e0 0.0000000000e0
0.0000000000e0 0.0000000000e0 0.0000000000e0
0.0000000000e0 0.0000000000e0 0.0000000000e0
0.0000000000e0 0.0000000000e0 0.0000000000e0
0.0000000000e0 0.0000000000e0 0.0000000000e0
0.0000000000e0 0.0000000000e0 0.0000000000e0
0.0000000000e0 0.0000000000e0 0.0000000000e0
0.0000000000e0 0.0000000000e0 0.0000000000e0
0.0000000000e0 0.0000000000e0 0.0000000000e0
0.0000000000e0 0.0000000000e0 0.0000000000e0
0.0000000000e0 0.0000000000e0 0.0000000000e0
0.0000000000e0 0.0000000000e0 0.0000000000e0
0.0000000000e0 0.0000000000e0 0.0000000000e0
0.0000000000e0 0.0000000000e0 0.0000000000e0
0.0000000000e0 0.0000000000e0 0.0000000000e0
0.0000000000e0 0.0000000000e0 0.0000000000e0
0.0000000000e0 0.0000000000e0 0.0000000000e0
0.0000000000e0 0.0000000000e0 0.0000000000e0
0.0000000000e0 0.0000000000e0 0.0000000000e0
0.0000000000e0 0.0000000000e0 0.0000000000e0
0.0000000000e0 0.0000000000e0 0.0000000000e0
0.0000000000e0 0.0000000000e0 0.0000000000e0
0.0000000000e0 0.0000000000e0 0.0000000000e0
0.0000000000e0 0.0000000000e0 0.0000000000e0
0.0000000000e0 0.0000000000e0 0.0000000000e0
0.0000000000e0 0.0000000000e0 0.0000000000e0
0.0000000000e0 0.0000000000e0 0.0000000000e0
0.0000000000e0 0.0000000000e0 0.0000000000e0
0.0000000000e0 0.0000000000e0 0.0000000000e0
0.0000000000e0 0.0000000000e0 0.0000000000e0
0.0000000000e0 0.0000000000e0 0.0000000000e0
0.0000000000e0 0.0000000000e0 0.0000000000e0
0.0000000000e0 0.0000000000e0 0.0000000000e0
0.0000000000e0 0.0000000000e0 0.0000000000e0
0.0000000000e0 0.0000000000e0 0.0000000000e0
0.0000000000e0 0.0000000000e0 0.0000000000e0
0.0000000000e0 0.0000000000e0 0.0000000000e0
0.0000000000e0 0.0000000000e0 0.0000000000e0
0.0000000000e0 0.0000000000e0 0.0000000000e0
0.0000000000e0 0.0000000000e0 0.0000000000e0
0.0000000000e0 0.0000000000e0 0.0000000000e0
0.0000000000e0 0.0000000000e0 0.0000000000e0
0.0000000000e0 0.0000000000e0 0.0000000000e0
0.0000000000e0 0.0000000000e0 0.0000000000e0
0.0000000000e0 0.0000000000e0 0.0000000000e0
0.0000000000e0 0.0000000000e0 0.0000000000e0
0.0000000000e0 0.0000000000e0 0.0000000000e0
0.0000000000e0 0.0000000000e0 0.0000000000e0
0.0000000000e0 0.0000000000e0 0.0000000000e0
0.0000000000e0 0.0000000000e0 0.0000000000e0
0.0000000000e0 0.0000000000e0 0.0000000000e0
0.0000000000e0 0.0000000000e0 0.0000000000e0
0.0000000000e0 0.0000000000e0 0.0000000000e0
0.0000000000e0 0.0000000000e0 0.0000000000e0
0.0000000000e0 0.0000000000e0 0.0000000000e0
0.0000000000e0 0.0000000000e0 0.0000000000e0
0.0000000000e0 0.0000000000e0 0.0000000000e0
0.0000000000e0 0.0000000000e0 0.0000000000e0
0.0000000000e0 0.0000000000e0 0.0000000000e0
0.0000000000e0 0.0000000000e0 0.0000000000e0
0.0000000000e0 0.0000000000e0 0.0000000000e0
0.0000000000e0 0.0000000000e0 0.0000000000e0
0.0000000000e0 0.0000000000e0 0.0000000000e0
0.0000000000e0 0.0000000000e0 0.0000000000e0
0.0000000000e0 0.0000000000e0 0.0000000000e0
0.0000000000e0 0.0000000000e0 0.0000000000e0
0.0000000000e0 0.0000000000e0 0.0000000000e0
0.0000000000e0 0.0000000000e0 0.0000000000e0
0.0000000000e0 0.0000000000e0 0.0000000000e0
0.0000000000e0 0.0000000000e0 0.0000000000e0
0.0000000000e0 0.0000000000e0 0.0000000000e0
0.0000000000e0 0.0000000000e0 0.0000000000e0
0.0000000000e0 0.0000000000e0 0.0000000000e0
0.0000000000e0 0.0000000000e0 0.0000000000e0
0.0000000000e0 0.0000000000e0 0.0000000000e0
0.0000000000e0 0.0000000000e0 0.0000000000e0
0.0000000000e0 0.0000000000e0 0.0000000000e0
0.0000000000e0 0.0000000000e0 0.0000000000e0
0.0000000000e0 0.0000000000e0 0.0000000000e0
0.0000000000e0 0.0000000000e0 0.0000000000e0
0.0000000000e0 0.0000000000e0 0.0000000000e0
0.0000000000e0 0.0000000000e0 0.0000000000e0
0.0000000000e0 0.0000000000e0 0.0000000000e0
0.0000000000e0 0.0000000000e0 0.0000000000e0
0.0000000000e0 0.0000000000e0 0.0000000000e0
0.0000000000e0 0.0000000000e0 0.0000000000e0
0.0000000000e0 0.0000000000e0 0.0000000000e0
0.0000000000e0 0.0000000000e0 0.0000000000e0
0.0000000000e0 0.0000000000e0 0.0000000000e0
0.0000000000e0 0.0000000000e0 0.0000000000e0
0.0000000000e0 0.0000000000e0 0.0000000000e0
0.0000000000e0 0.0000000000e0 0.0000000000e0
0.0000000000e0 0.0000000000e0 0.0000000000e0
0.0000000000e0 0.0000000000e0 0.0000000000e0
0.0000000000e0 0.0000000000e0 0.0000000000e0
0.0000000000e0 0.0000000000e0 0.0000000000e0
0.0000000000e0 0.0000000000e0 0.0000000000e0
0.0000000000e0 0.0000000000e0 0.0000000000e0
0.0000000000e0 0.0000000000e0 0.0000000000e0
0.0000000000e0 0.0000000000e0 0.0000000000e0
0.0000000000e0 0.0000000000e0 0.0000000000e0
0.0000000000e0 0.0000000000e0 0.0000000000e0
0.0000000000e0 0.0000000000e0 0.0000000000e0
0.0000000000e0 0.0000000000e0 0.0000000000e0
0.0000000000e0 0.0000000000e0 0.0000000000e0
0.0000000000e0 0.0000000000e0 0.0000000000e0
0.0000000000e0 0.0000000000e0 0.0000000000e0
0.0000000000e0 0.0000000000e0 0.0000000000e0
0.0000000000e0 0.0000000000e0 0.0000000000e0
0.0000000000e0 0.0000000000e0 0.0000000000e0
0.0000000000e0 0.0000000000e0 0.0000000000e0
0.0000000000e0 0.0000000000e0 0.0000000000e0
0.0000000000e0 0.0000000000e0 0.0000000000e0
0.0000000000e0 0.0000000000e0 0.0000000000e0
0.0000000000e0 0.0000000000e0 0.0000000000e0
0.0000000000e0 0.0000000000e0 0.0000000000e0
0.0000000000e0 0.0000000000e0 0.0000000000e0
0.0000000000e0 0.0000000000e0 0.0000000000e0
0.0000000000e0 0.0000000000e0 0.0000000000e0
0.0000000000e0 0.0000000000e0 0.0000000000e0
0.0000000000e0 0.0000000000e0 0.0000000000e0
0.0000000000e0 0.0000000000e0 0.0000000000e0
0.0000000000e0 0.0000000000e0 0.0000000000e0
0.0000000000e0 0.0000000000e0 0.0000000000e0
0.0000000000e0 0.0000000000e0 0.0000000000e0
0.0000000000e0 0.0000000000e0 0.0000000000e0
0.0000000000e0 0.0000000000e0 0.0000000000e0
0.0000000000e0 0.0000000000e0 0.0000000000e0
0.0000000000e0 0.0000000000e0 0.0000000000e0
0.0000000000e0 0.0000000000e0 0.0000000000e0
0.0000000000e0 0.0000000000e0 0.0000000000e0
0.0000000000e0 0.0000000000e0 0.0000000000e0
0.0000000000e0 0.0000000000e0 0.0000000000e0
0.0000000000e0 0.0000000000e0 0.0000000000e0
0.0000000000e0 0.0000000000e0 0.0000000000e0
0.0000000000e0 0.0000000000e0 0.0000000000e0
0.0000000000e0 0.0000000000e0 0.0000000000e0
0.0000000000e0 0.0000000000e0 0.0000000000e0
0.0000000000e0 0.0000000000e0 0.0000000000e0
0.0000000000e0 0.0000000000e0 0.0000000000e0
0.0000000000e0 0.0000000000e0 0.0000000000e0
0.0000000000e0 0.0000000000e0 0.0000000000e0
0.0000000000e0 0.0000000000e0 0.0000000000e0
0.0000000000e0 0.0000000000e0 0.0000000000e0