# vtk DataFile Version 3.0
RapidFEM Mode 4 f=12.0232GHz
ASCII
DATASET UNSTRUCTURED_GRID
POINTS 242 double
0.0000000000e0 0.0000000000e0 1.0160000000e-2
0.0000000000e0 0.0000000000e0 0.0000000000e0
0.0000000000e0 3.0000000000e-2 1.0160000000e-2
0.0000000000e0 3.0000000000e-2 0.0000000000e0
2.2860000000e-2 0.0000000000e0 1.0160000000e-2
2.2860000000e-2 0.0000000000e0 0.0000000000e0
2.2860000000e-2 3.0000000000e-2 1.0160000000e-2
2.2860000000e-2 3.0000000000e-2 0.0000000000e0
0.0000000000e0 0.0000000000e0 3.3866666667e-3
0.0000000000e0 0.0000000000e0 6.7733333333e-3
0.0000000000e0 3.7500000000e-3 1.0160000000e-2
0.0000000000e0 7.5000000000e-3 1.0160000000e-2
0.0000000000e0 1.1250000000e-2 1.0160000000e-2
0.0000000000e0 1.5000000000e-2 1.0160000000e-2
0.0000000000e0 1.8750000000e-2 1.0160000000e-2
0.0000000000e0 2.2500000000e-2 1.0160000000e-2
0.0000000000e0 2.6250000000e-2 1.0160000000e-2
0.0000000000e0 3.0000000000e-2 3.3866666667e-3
0.0000000000e0 3.0000000000e-2 6.7733333333e-3
0.0000000000e0 3.7500000000e-3 0.0000000000e0
0.0000000000e0 7.5000000000e-3 0.0000000000e0
0.0000000000e0 1.1250000000e-2 0.0000000000e0
0.0000000000e0 1.5000000000e-2 0.0000000000e0
0.0000000000e0 1.8750000000e-2 0.0000000000e0
0.0000000000e0 2.2500000000e-2 0.0000000000e0
0.0000000000e0 2.6250000000e-2 0.0000000000e0
2.2860000000e-2 0.0000000000e0 3.3866666667e-3
2.2860000000e-2 0.0000000000e0 6.7733333333e-3
2.2860000000e-2 3.7500000000e-3 1.0160000000e-2
2.2860000000e-2 7.5000000000e-3 1.0160000000e-2
2.2860000000e-2 1.1250000000e-2 1.0160000000e-2
2.2860000000e-2 1.5000000000e-2 1.0160000000e-2
2.2860000000e-2 1.8750000000e-2 1.0160000000e-2
2.2860000000e-2 2.2500000000e-2 1.0160000000e-2
2.2860000000e-2 2.6250000000e-2 1.0160000000e-2
2.2860000000e-2 3.0000000000e-2 3.3866666667e-3
2.2860000000e-2 3.0000000000e-2 6.7733333333e-3
2.2860000000e-2 3.7500000000e-3 0.0000000000e0
2.2860000000e-2 7.5000000000e-3 0.0000000000e0
2.2860000000e-2 1.1250000000e-2 0.0000000000e0
2.2860000000e-2 1.5000000000e-2 0.0000000000e0
2.2860000000e-2 1.8750000000e-2 0.0000000000e0
2.2860000000e-2 2.2500000000e-2 0.0000000000e0
2.2860000000e-2 2.6250000000e-2 0.0000000000e0
3.8100000000e-3 0.0000000000e0 0.0000000000e0
7.6200000000e-3 0.0000000000e0 0.0000000000e0
1.1430000000e-2 0.0000000000e0 0.0000000000e0
1.5240000000e-2 0.0000000000e0 0.0000000000e0
1.9050000000e-2 0.0000000000e0 0.0000000000e0
3.8100000000e-3 0.0000000000e0 1.0160000000e-2
7.6200000000e-3 0.0000000000e0 1.0160000000e-2
1.1430000000e-2 0.0000000000e0 1.0160000000e-2
1.5240000000e-2 0.0000000000e0 1.0160000000e-2
1.9050000000e-2 0.0000000000e0 1.0160000000e-2
3.8100000000e-3 3.0000000000e-2 0.0000000000e0
7.6200000000e-3 3.0000000000e-2 0.0000000000e0
1.1430000000e-2 3.0000000000e-2 0.0000000000e0
1.5240000000e-2 3.0000000000e-2 0.0000000000e0
1.9050000000e-2 3.0000000000e-2 0.0000000000e0
3.8100000000e-3 3.0000000000e-2 1.0160000000e-2
7.6200000000e-3 3.0000000000e-2 1.0160000000e-2
1.1430000000e-2 3.0000000000e-2 1.0160000000e-2
1.5240000000e-2 3.0000000000e-2 1.0160000000e-2
1.9050000000e-2 3.0000000000e-2 1.0160000000e-2
0.0000000000e0 2.7067060633e-2 5.0800000000e-3
0.0000000000e0 2.9329393675e-3 5.0800000000e-3
0.0000000000e0 2.0607895740e-2 3.4149433368e-3
0.0000000000e0 1.3125000000e-2 3.2475952642e-3
0.0000000000e0 1.6875000000e-2 6.9124047358e-3
0.0000000000e0 9.3921042596e-3 6.7450566632e-3
0.0000000000e0 2.0575689701e-2 7.5387577184e-3
0.0000000000e0 1.6874109524e-2 3.0751560233e-3
0.0000000000e0 1.3125890476e-2 7.0848439767e-3
0.0000000000e0 9.4243102990e-3 2.6212422816e-3
0.0000000000e0 5.3249758464e-3 7.1684469476e-3
0.0000000000e0 2.4675024154e-2 2.9915530524e-3
0.0000000000e0 2.4145552764e-2 7.0464405194e-3
0.0000000000e0 5.8544472356e-3 3.1135594806e-3
0.0000000000e0 2.7479635784e-2 7.7520655419e-3
0.0000000000e0 2.7479635784e-2 2.4079344581e-3
0.0000000000e0 2.5203642158e-3 7.7520655419e-3
0.0000000000e0 2.5203642158e-3 2.4079344581e-3
2.2860000000e-2 2.7067060633e-2 5.0800000000e-3
2.2860000000e-2 2.9329393675e-3 5.0800000000e-3
2.2860000000e-2 2.0607895740e-2 3.4149433368e-3
2.2860000000e-2 1.3125000000e-2 3.2475952642e-3
2.2860000000e-2 1.6875000000e-2 6.9124047358e-3
2.2860000000e-2 9.3921042596e-3 6.7450566632e-3
2.2860000000e-2 2.0575689701e-2 7.5387577184e-3
2.2860000000e-2 1.6874109524e-2 3.0751560233e-3
2.2860000000e-2 1.3125890476e-2 7.0848439767e-3
2.2860000000e-2 9.4243102990e-3 2.6212422816e-3
2.2860000000e-2 5.3249758464e-3 7.1684469476e-3
2.2860000000e-2 2.4675024154e-2 2.9915530524e-3
2.2860000000e-2 2.4145552764e-2 7.0464405194e-3
2.2860000000e-2 5.8544472356e-3 3.1135594806e-3
2.2860000000e-2 2.7479635784e-2 2.4079344581e-3
2.2860000000e-2 2.7479635784e-2 7.7520655419e-3
2.2860000000e-2 2.5203642158e-3 7.7520655419e-3
2.2860000000e-2 2.5203642158e-3 2.4079344581e-3
2.9329393675e-3 0.0000000000e0 5.0800000000e-3
1.9927060633e-2 0.0000000000e0 5.0800000000e-3
9.5250000000e-3 0.0000000000e0 3.2995567884e-3
1.3335000000e-2 0.0000000000e0 6.8604432116e-3
1.3288060349e-2 0.0000000000e0 2.6642308317e-3
9.5719396507e-3 0.0000000000e0 7.4957691683e-3
1.7465697863e-2 0.0000000000e0 7.1978653226e-3
5.3943021370e-3 0.0000000000e0 2.9621346774e-3
1.6910301746e-2 0.0000000000e0 3.1611541587e-3
5.9496982536e-3 0.0000000000e0 6.9988458413e-3
2.5281752011e-3 0.0000000000e0 7.7655945654e-3
2.5281752011e-3 0.0000000000e0 2.3944054346e-3
2.0331824799e-2 0.0000000000e0 7.7655945654e-3
2.0331824799e-2 0.0000000000e0 2.3944054346e-3
2.9329393675e-3 3.0000000000e-2 5.0800000000e-3
1.9927060633e-2 3.0000000000e-2 5.0800000000e-3
9.5250000000e-3 3.0000000000e-2 3.2995567884e-3
1.3335000000e-2 3.0000000000e-2 6.8604432116e-3
1.3288060349e-2 3.0000000000e-2 2.6642308317e-3
9.5719396507e-3 3.0000000000e-2 7.4957691683e-3
1.7465697863e-2 3.0000000000e-2 7.1978653226e-3
5.3943021370e-3 3.0000000000e-2 2.9621346774e-3
1.6910301746e-2 3.0000000000e-2 3.1611541587e-3
5.9496982536e-3 3.0000000000e-2 6.9988458413e-3
2.5281752011e-3 3.0000000000e-2 7.7655945654e-3
2.5281752011e-3 3.0000000000e-2 2.3944054346e-3
2.0331824799e-2 3.0000000000e-2 7.7655945654e-3
2.0331824799e-2 3.0000000000e-2 2.3944054346e-3
3.0032597289e-3 1.7053382250e-2 0.0000000000e0
1.9374906205e-2 1.3140168730e-2 0.0000000000e0
1.3292324977e-2 2.6390097520e-2 0.0000000000e0
9.5349916220e-3 3.2987589966e-3 0.0000000000e0
1.9282143073e-2 2.0260904772e-2 0.0000000000e0
3.3990631681e-3 9.0777329865e-3 0.0000000000e0
1.6993391798e-2 3.2075459795e-3 0.0000000000e0
5.5706840137e-3 2.6774551281e-2 0.0000000000e0
1.3312591326e-2 3.2785812089e-3 0.0000000000e0
1.1435229781e-2 6.5801018339e-3 0.0000000000e0
7.0221190436e-3 6.8767844285e-3 0.0000000000e0
9.5482210217e-3 9.8627330247e-3 0.0000000000e0
1.3329378341e-2 9.8552977906e-3 0.0000000000e0
1.1442663086e-2 1.3123500598e-2 0.0000000000e0
7.7150351477e-3 1.3129967350e-2 0.0000000000e0
9.6645250455e-3 1.6332769384e-2 0.0000000000e0
1.3347048630e-2 1.6371376085e-2 0.0000000000e0
1.1441262234e-2 1.9616869481e-2 0.0000000000e0
8.0656326056e-3 1.9396484399e-2 0.0000000000e0
9.7574291791e-3 2.2918228652e-2 0.0000000000e0
1.5170836301e-2 1.9788578707e-2 0.0000000000e0
1.7106992305e-2 1.6592316327e-2 0.0000000000e0
1.6701906859e-2 2.3314854219e-2 0.0000000000e0
5.6802354321e-3 3.1827773814e-3 0.0000000000e0
1.5200355414e-2 6.5624135570e-3 0.0000000000e0
1.7104311409e-2 9.8670221071e-3 0.0000000000e0
1.9330824752e-2 6.1670243647e-3 0.0000000000e0
9.2384056136e-3 2.6583295217e-2 0.0000000000e0
1.5284216663e-2 1.3158280273e-2 0.0000000000e0
3.8333502594e-3 1.3112028103e-2 0.0000000000e0
2.9169526120e-3 2.0658918312e-2 0.0000000000e0
1.7211032325e-2 2.6909153486e-2 0.0000000000e0
3.0282716898e-3 2.4278122460e-2 0.0000000000e0
3.1513738996e-3 5.6064197490e-3 0.0000000000e0
1.3272751910e-2 2.2405725716e-2 0.0000000000e0
1.9926363821e-2 2.4391666377e-2 0.0000000000e0
6.1886758944e-3 2.2696242807e-2 0.0000000000e0
6.3313909733e-3 1.6128987380e-2 0.0000000000e0
2.0270458824e-2 1.6842117338e-2 0.0000000000e0
6.3399109015e-3 1.0257232482e-2 0.0000000000e0
2.0306008473e-2 9.5848430404e-3 0.0000000000e0
2.8124266069e-3 2.7969454326e-3 0.0000000000e0
2.0060936205e-2 2.7833688157e-3 0.0000000000e0
2.7164751199e-3 2.7280121283e-2 0.0000000000e0
2.0259599042e-2 2.7402075216e-2 0.0000000000e0
5.3011823629e-3 1.9186803030e-2 0.0000000000e0
3.4850937950e-3 1.6859831270e-2 1.0160000000e-2
1.9856740271e-2 1.2946617750e-2 1.0160000000e-2
1.3325008378e-2 2.6701241003e-2 1.0160000000e-2
9.5676750235e-3 3.6099024795e-3 1.0160000000e-2
1.9460936832e-2 2.0922267013e-2 1.0160000000e-2
3.5778569271e-3 9.7390952284e-3 1.0160000000e-2
1.7289315986e-2 3.2254487189e-3 1.0160000000e-2
5.8666082021e-3 2.6792454020e-2 1.0160000000e-2
9.5474086744e-3 2.6721418791e-2 1.0160000000e-2
1.1424770219e-2 2.3419898166e-2 1.0160000000e-2
1.5837880956e-2 2.3123215571e-2 1.0160000000e-2
1.3311778978e-2 2.0137266975e-2 1.0160000000e-2
9.5306216592e-3 2.0144702209e-2 1.0160000000e-2
1.1417336914e-2 1.6876499402e-2 1.0160000000e-2
1.5144964852e-2 1.6870032650e-2 1.0160000000e-2
1.3195474954e-2 1.3667230616e-2 1.0160000000e-2
9.5129513703e-3 1.3628623915e-2 1.0160000000e-2
1.1418737766e-2 1.0383130519e-2 1.0160000000e-2
1.4794367394e-2 1.0603515601e-2 1.0160000000e-2
1.3102570821e-2 7.0817713478e-3 1.0160000000e-2
7.6891636986e-3 1.0211421293e-2 1.0160000000e-2
5.7530076952e-3 1.3407683673e-2 1.0160000000e-2
6.1580931408e-3 6.6851457810e-3 1.0160000000e-2
1.7179764568e-2 2.6817222619e-2 1.0160000000e-2
7.6596445855e-3 2.3437586443e-2 1.0160000000e-2
5.7556885912e-3 2.0132977893e-2 1.0160000000e-2
3.5291752478e-3 2.3832975635e-2 1.0160000000e-2
1.3621594386e-2 3.4167047832e-3 1.0160000000e-2
7.5757833375e-3 1.6841719727e-2 1.0160000000e-2
1.9943047388e-2 9.3410816876e-3 1.0160000000e-2
1.9026649741e-2 1.6887971897e-2 1.0160000000e-2
5.6489676750e-3 3.0908465141e-3 1.0160000000e-2
1.9831728310e-2 5.7218775397e-3 1.0160000000e-2
1.9708626100e-2 2.4393580251e-2 1.0160000000e-2
9.5872480899e-3 7.5942742841e-3 1.0160000000e-2
[...]
POINT_DATA 242
VECTORS E_real double
0.0000000000e0 0.0000000000e0 0.0000000000e0
0.0000000000e0 0.0000000000e0 0.0000000000e0
-5.8000516533e-18 -2.0070590618e-18 -3.8194628647e-18
2.0090684196e-18 1.9817738481e-18 2.7787057658e-19
4.8799954965e-18 4.6431072740e-18 -5.2420515649e-18
1.5964071886e-19 -1.4942867380e-18 1.5640570323e-18
2.6000407383e-17 2.9577372601e-17 1.5144163216e-17
-9.2441626022e-19 3.3584712735e-18 7.2665986091e-18
0.0000000000e0 0.0000000000e0 0.0000000000e0
0.0000000000e0 0.0000000000e0 0.0000000000e0
4.4194214521e-19 0.0000000000e0 0.0000000000e0
0.0000000000e0 0.0000000000e0 1.0148612025e-19
8.9823531820e-19 0.0000000000e0 0.0000000000e0
-8.4182748884e-19 0.0000000000e0 0.0000000000e0
-1.7166810177e-18 -3.7346998109e-19 9.9226656167e-19
-8.2428103445e-18 -1.9394958690e-17 9.9538589743e-18
3.6249639958e-17 0.0000000000e0 0.0000000000e0
-1.1402475162e-17 1.7092402181e-18 -4.1085011764e-17
-1.0680905693e-17 9.2077284327e-18 2.4460574869e-17
0.0000000000e0 0.0000000000e0 0.0000000000e0
0.0000000000e0 0.0000000000e0 0.0000000000e0
0.0000000000e0 0.0000000000e0 0.0000000000e0
0.0000000000e0 0.0000000000e0 0.0000000000e0
0.0000000000e0 0.0000000000e0 1.4051323648e-18
0.0000000000e0 0.0000000000e0 4.6755040134e-18
0.0000000000e0 0.0000000000e0 -4.6816757345e-18
0.0000000000e0 -9.5891366996e-18 0.0000000000e0
0.0000000000e0 3.5891485685e-17 0.0000000000e0
1.2214997455e-16 2.1755459299e-17 -7.9205505005e-17
-6.5663503219e-17 -1.3635539424e-16 -1.4015821199e-16
-8.7288699092e-18 -2.4811950182e-32 1.6529083966e-17
7.6156997723e-17 1.3513169240e-17 -1.5831748671e-17
7.6027399997e-18 1.0066430287e-18 -6.1406761185e-18
-7.4557355928e-18 -1.1621493810e-17 -7.8774297961e-17
1.5371503183e-17 -1.8036706477e-31 1.8094153900e-17
7.4884074182e-18 1.1624214432e-17 8.2743958653e-18
3.2362008744e-17 -3.5778577030e-17 -4.7567850520e-17
7.7573220342e-18 0.0000000000e0 1.1817931663e-32
0.0000000000e0 0.0000000000e0 1.1229303160e-17
0.0000000000e0 0.0000000000e0 -5.2974434931e-18
-1.9094233541e-17 -6.3425560827e-18 1.7930743657e-17
1.8701486095e-17 -3.3612593733e-18 -8.1120789383e-18
0.0000000000e0 0.0000000000e0 -1.0360274847e-17
5.8423766855e-17 4.6204147602e-17 -1.2139678244e-17
0.0000000000e0 0.0000000000e0 0.0000000000e0
0.0000000000e0 0.0000000000e0 0.0000000000e0
0.0000000000e0 0.0000000000e0 4.5055280981e-19
0.0000000000e0 0.0000000000e0 0.0000000000e0
0.0000000000e0 0.0000000000e0 0.0000000000e0
-1.9059949123e-19 5.4756668507e-19 1.0203583361e-19
0.0000000000e0 0.0000000000e0 0.0000000000e0
0.0000000000e0 2.8921534556e-19 0.0000000000e0
1.3769463787e-17 7.1068085767e-18 1.9680949118e-18
0.0000000000e0 -2.5372941658e-17 0.0000000000e0
1.2471718810e-17 -5.1722380845e-18 1.2771656416e-18
0.0000000000e0 0.0000000000e0 -2.0037576215e-18
0.0000000000e0 0.0000000000e0 3.9502995097e-18
0.0000000000e0 0.0000000000e0 3.8277541602e-18
0.0000000000e0 0.0000000000e0 -5.0703945403e-18
1.5506585527e-17 6.9206650977e-17 -6.1344346625e-18
-3.4463159400e-18 1.4546596887e-17 3.8396849752e-17
-3.7895641269e-18 2.8130766247e-17 -5.0911401075e-17
2.2444003940e-18 1.7341486474e-17 -2.1123826935e-17
2.1474055004e-16 1.5558966876e-16 1.1758524999e-16
2.6833595520e-2 -1.8048279260e-2 -2.7867099206e-3
-2.4657089325e-3 -1.5161783215e-3 -2.3410260385e-4
5.3690378454e-3 2.5820271669e-2 7.8435817899e-3
2.3732627756e-3 1.6669752804e-3 2.0807857894e-3
3.3521953339e-3 2.2877687256e-4 -1.3516854548e-3
9.0096563779e-4 -6.2006390707e-6 -5.9563944359e-5
5.7059413369e-3 2.5822035181e-2 -1.2647816845e-2
2.0767017006e-3 1.6481397455e-3 1.8384264214e-4
2.8528817493e-3 1.0722127091e-3 -2.3040586408e-3
1.8008993370e-4 -6.7013847872e-4 1.6245647967e-3
-1.8517177172e-3 4.8012451235e-3 5.7134794559e-4
2.0659940649e-2 1.5259412146e-3 1.4658340304e-2
1.9906851983e-2 -1.6637042844e-3 -1.2063759878e-2
-2.9095184914e-3 2.6905016176e-4 -1.2712638400e-3
1.9463787513e-2 -2.1442128408e-2 -5.2431125144e-3
2.0856442754e-2 -2.2884351206e-2 5.8330894625e-3
-2.2836991241e-3 -2.3823891009e-3 2.1324600109e-3
-2.1703265510e-3 -3.6507323792e-3 -1.6332071926e-3
5.8357073922e-3 4.0710422377e-3 6.2858146349e-4
-3.8630901484e-2 2.5413646563e-2 3.9239453232e-3
1.5007308054e-4 7.6067132711e-5 7.3070830421e-4
-3.0292767366e-3 -6.2464427708e-5 3.6905941334e-4
-5.7177538507e-4 2.5685818899e-3 7.2483227527e-4
-6.6236721214e-3 -3.7536537880e-2 -1.0911800489e-2
-1.1729812712e-3 4.6493740018e-4 -1.7388706174e-3
-8.5161042761e-4 1.8136848444e-18 -2.6125525476e-18
-4.9258423510e-3 1.8001952334e-4 -1.9781621861e-3
-8.5929942378e-3 -3.8208660071e-2 1.4425783674e-2
-3.0483038852e-2 -2.2043770252e-3 -2.1175460945e-2
3.8577180975e-3 -7.0061240407e-3 -1.5749344418e-3
4.1231649609e-3 -2.9625553331e-4 1.3998094052e-3
-2.7658898454e-2 2.2876610145e-3 1.6588160181e-2
2.6607635263e-3 4.7401418244e-3 -4.7231206884e-3
3.0375659962e-3 4.5736866935e-3 3.6963538816e-3
-2.9194853542e-2 3.2667961291e-2 -9.1634065541e-3
-2.7231529855e-2 3.0921245677e-2 9.5002135991e-3
-4.0254458547e-3 -3.5724585450e-3 -6.0670223892e-4
-1.7554950959e-2 2.9334358734e-2 2.6458256888e-3
6.0983270801e-3 8.6821745404e-5 -6.8217077009e-5
-4.3135126373e-5 -1.0203074786e-4 -2.5549103104e-4
7.3000152826e-4 8.9833384597e-4 6.4215472396e-4
6.1342327614e-3 1.1296011347e-4 4.5129267786e-4
3.2038890128e-2 1.8846437407e-2 -1.8764827588e-2
2.0579490159e-4 -3.9730894152e-3 -2.5193267791e-3
3.9384926348e-3 2.1744756694e-2 1.7575045015e-2
-2.4658361122e-4 -3.8392152834e-3 1.7974309434e-3
-4.5738517425e-3 -2.7202450074e-3 2.5229312404e-3
-5.4418984993e-3 -3.5321899959e-3 8.2018542111e-4
-3.4612512759e-2 3.1787917424e-2 5.2166864848e-3
-3.4611108622e-2 3.1483401722e-2 -5.2164748577e-3
1.2552883025e-2 -2.0408550528e-2 -1.8919301144e-3
4.6043885102e-3 4.5481780211e-3 6.9395861199e-4
-2.9306757204e-4 7.6614941584e-4 -1.7358506266e-3
-5.8565794397e-3 -4.0310467963e-4 6.5512840718e-5
-6.7278665156e-3 1.5257913239e-4 -5.2435357899e-4
-1.9521721944e-4 4.2737947323e-4 -3.3362185117e-4
-2.4316038827e-4 4.0470504605e-3 2.9767524514e-3
-2.4643868239e-2 -1.3935527259e-2 1.2765195093e-2
2.8446260556e-4 3.9477762125e-3 -2.0735436835e-3
-2.8285167302e-3 -1.4872472931e-2 -1.2621912358e-2
2.2927137025e-2 -2.2188209652e-2 3.4555042763e-3
2.4712131767e-2 -2.2475371475e-2 -3.7245329369e-3
7.0024871588e-3 4.8404366233e-3 -1.0553923194e-3
5.4102898320e-3 2.7141437597e-3 -3.3421975674e-3
-6.6833128125e-4 -1.4075757903e-4 8.0284326661e-4
0.0000000000e0 0.0000000000e0 1.9301931602e-3
-6.1086499890e-3 1.4529128667e-3 -1.1180086216e-3
6.7485565508e-3 -1.0067558299e-3 -7.3244315461e-4
9.9322284917e-4 -8.6453916748e-3 -2.3966147548e-3
-7.9661656820e-4 8.5754830096e-5 -2.1695808177e-3
2.5186115544e-2 1.3460925204e-2 1.8453883380e-2
-2.3321215555e-2 -9.8886319786e-3 1.0120928655e-2
-3.5503520569e-6 -6.6468183050e-4 -1.2953019456e-4
7.2132137553e-3 -4.1716277822e-3 -2.3103432042e-4
3.1909079288e-3 2.2409972168e-3 -3.3587251384e-3
-3.2591924424e-6 -1.6574487334e-3 -6.0480870354e-4
-3.6500272436e-6 -1.8562061427e-3 -8.5604473094e-4
6.5766059935e-5 -3.8561802719e-5 -1.1154967947e-3
-4.6924783718e-3 -2.1649473156e-3 -3.3677516227e-3
4.0071434442e-5 -6.5542324938e-4 -1.3044309927e-3
1.6077892820e-3 9.6933243912e-4 -9.6768692100e-4
3.1200771567e-3 1.8321407175e-3 -1.2117470633e-3
1.1940116274e-4 -1.5741912342e-3 7.1279025820e-4
-2.5079789583e-3 1.2047979361e-3 -2.2945026622e-3
-2.2612246762e-3 9.8179921415e-4 -1.9918608169e-3
0.0000000000e0 0.0000000000e0 -1.5626677041e-3
-1.5438130812e-3 -2.9318258703e-3 -2.3888599264e-3
0.0000000000e0 0.0000000000e0 -5.8502236563e-3
3.2593556334e-2 1.7419892447e-2 1.7980219276e-2
-1.2870730858e-4 -1.4603557130e-3 5.1578967360e-3
-4.8245502921e-3 1.3765571999e-3 2.2313798419e-2
2.2751205415e-5 4.3630034857e-4 -3.6523775022e-3
-8.2682799683e-4 6.0620478496e-3 -4.3125099315e-3
0.0000000000e0 0.0000000000e0 -2.0901995194e-3
1.0174706880e-3 1.6478898856e-3 4.2294760075e-3
-5.8654529443e-4 3.6275991769e-3 -4.1578847017e-3
1.0127945537e-2 -3.1151421978e-4 1.3983415789e-2
-1.6232410180e-3 4.9459437825e-3 -3.3920000860e-3
0.0000000000e0 0.0000000000e0 -1.2501877270e-3
3.3416129515e-3 -8.2455545552e-3 -4.2581231630e-3
0.0000000000e0 0.0000000000e0 -5.5863619654e-4
1.2107071921e-2 5.5857844786e-3 5.4804064985e-3
5.5773376698e-4 -7.5700386791e-4 -9.7710659223e-5
0.0000000000e0 0.0000000000e0 2.9977161492e-4
-7.1180206613e-3 -5.9125995897e-2 -6.2013564757e-3
-3.0321409438e-3 -4.1677884942e-3 -3.2130726114e-3
-1.3957002450e-2 1.3214758166e-2 1.8819959301e-2
1.1142125208e-2 -1.1475079975e-2 1.3216001007e-2
4.5791885389e-3 3.9885158406e-3 -2.8365150333e-3
1.3861704214e-3 2.2450339297e-3 2.5153868599e-3
8.6275868626e-19 -3.1212540339e-18 -1.2238926861e-3
4.2388838134e-18 2.4506348847e-17 -1.1180615794e-4
-6.8878317050e-3 5.0109561568e-4 5.3269024744e-4
4.9550397333e-3 -1.4937205496e-3 1.9840460029e-3
2.6744821223e-4 -2.8790483295e-5 8.1150712472e-4
-1.5430372992e-3 1.3431187001e-2 -8.8370279993e-4
3.2506683434e-2 1.5829847008e-2 -1.5222106827e-2
-1.6911065527e-2 -9.0382571212e-3 -1.2290032985e-2
2.0688047898e-6 3.8731284465e-4 7.5588103001e-4
-5.6533593500e-3 3.2695150494e-3 2.5544643378e-4
-4.2522677469e-3 -2.9863977270e-3 3.4732926393e-3
-5.6932993302e-7 -2.8953036468e-4 -4.3976444223e-5
1.6713819281e-7 8.4997431380e-5 1.2378272039e-4
-1.3646181845e-3 8.0014124715e-4 1.4382059017e-3
3.4928913006e-3 1.6114993072e-3 1.3289003385e-3
3.5541554448e-5 -5.8133085148e-4 2.0650424722e-3
-1.5075575878e-3 -9.0890298252e-4 1.1363196166e-3
-4.3116755033e-3 -2.5318592629e-3 1.0415582644e-3
9.9725456226e-5 -1.3147856806e-3 -1.1582869663e-3
1.9501908851e-3 -9.3684436449e-4 1.3068577367e-3
1.8215737291e-3 -7.9090754430e-4 7.2065481273e-4
2.7691785088e-17 -1.4404308701e-17 4.7166244876e-4
-3.8182215593e-5 5.2712421238e-3 1.9732466448e-3
-8.3548218887e-18 1.1840598140e-18 6.2472675629e-3
-2.2272444394e-2 -1.1903689855e-2 -1.1902063645e-2
5.8618989416e-5 6.6511045120e-4 -3.7721484063e-3
3.5477768457e-3 -1.0122638308e-3 -1.3882545427e-2
-5.1057535566e-5 -9.7913144195e-4 3.7969842945e-3
7.6200574301e-4 -7.6096296740e-3 5.3736930453e-3
-1.8703242201e-3 -3.0291667380e-3 -6.0798134235e-3
1.3361198394e-17 5.1743575396e-18 1.7476665112e-4
5.5898588652e-4 -3.4571528595e-3 3.8826913603e-3
-1.4351365785e-2 4.4141770892e-4 -2.0914558598e-2
2.1271811451e-3 -6.4814271215e-3 3.9548317405e-3
-3.3498401391e-18 5.9689244142e-18 1.1921061546e-3
-2.3430140396e-3 6.1399162531e-3 2.7762350373e-3
3.3395646661e-17 4.8637999771e-17 -1.8288915488e-4
-1.0802120860e-2 -4.9837251673e-3 -7.4588623451e-3
8.6972302927e-4 2.5142275910e-4 -3.7670495149e-4
1.1227370833e-17 -1.8373224857e-18 -1.2601674775e-3
5.5348212390e-3 4.0367742285e-2 4.8964389217e-3
3.8112592200e-3 3.9949412532e-3 3.4486571313e-3
-1.5935788889e-2 1.5747793322e-2 -1.9116412442e-2
9.3778106133e-3 -8.6738872893e-3 -1.3318957629e-2
-2.8241029374e-3 -2.5505152246e-3 2.7258982621e-3
-2.3488521794e-3 -3.8041879680e-3 -3.7355493107e-3
-2.5448474061e-3 -1.0897009731e-3 1.0122322049e-3
1.6692644747e-3 1.5708504440e-3 -1.1649086538e-3
1.3718494846e-2 -2.8558003460e-3 2.3511430190e-3
-1.0449914741e-2 3.2226265140e-3 -3.8649008966e-3
-1.2752037012e-2 -6.7874466488e-2 1.2639500673e-2
1.5325254988e-2 9.6567482745e-2 -2.0426675923e-2
1.7997939895e-3 -7.1500508803e-3 4.0489132463e-3
7.6270472610e-4 5.7892780400e-3 -3.9576801454e-3
-1.3652691770e-3 8.9436916416e-3 1.4762384860e-3
4.6856826773e-4 -7.4396791041e-3 2.5935311550e-4
-4.3036813158e-3 -2.6411189915e-3 1.6224821867e-3
1.2518970617e-3 2.0063502176e-3 -2.5641270287e-3
-7.1665711469e-3 -2.1698182875e-4 -3.5357582296e-4
5.1111834681e-3 8.6922044734e-4 3.6987629944e-4
1.8812967544e-3 1.4090140244e-3 -6.0298640529e-4
-1.6818827238e-3 -3.9928368733e-4 1.8456197355e-3
8.4986374040e-3 6.4952354282e-3 1.0894535968e-2
-5.2536230377e-3 -7.2811611809e-3 -8.4161466019e-3
-9.2320798430e-3 7.6514784456e-4 -4.1739914225e-3
1.1068048670e-2 -3.5261201300e-3 7.6386048683e-3
4.2439227043e-3 -3.4123831234e-3 4.1064185628e-4
-3.6016514918e-3 2.4602406915e-3 -9.6988596985e-5
VECTORS E_imag double
0.0000000000e0 0.0000000000e0 0.0000000000e0
0.0000000000e0 0.0000000000e0 0.0000000000e0
0.0000000000e0 0.0000000000e0 0.0000000000e0
0.0000000000e0 0.0000000000e0 0.0000000000e0
0.0000000000e0 0.0000000000e0 0.0000000000e0
0.0000000000e0 0.0000000000e0 0.0000000000e0
0.0000000000e0 0.0000000000e0 0.0000000000e0
0.0000000000e0 0.0000000000e0 0.0000000000e0
0.0000000000e0 0.0000000000e0 0.0000000000e0
0.0000000000e0 0.0000000000e0 0.0000000000e0
0.0000000000e0 0.0000000000e0 0.0000000000e0
0.0000000000e0 0.0000000000e0 0.0000000000e0
0.0000000000e0 0.0000000000e0 0.0000000000e0
0.0000000000e0 0.0000000000e0 0.0000000000e0
0.0000000000e0 0.0000000000e0 0.0000000000e0
0.0000000000e0 0.0000000000e0 0.0000000000e0
0.0000000000e0 0.0000000000e0 0.0000000000e0
0.0000000000e0 0.0000000000e0 0.0000000000e0
0.0000000000e0 0.0000000000e0 0.0000000000e0
0.0000000000e0 0.0000000000e0 0.0000000000e0
0.0000000000e0 0.0000000000e0 0.0000000000e0
0.0000000000e0 0.0000000000e0 0.0000000000e0
0.0000000000e0 0.0000000000e0 0.0000000000e0
0.0000000000e0 0.0000000000e0 0.0000000000e0
0.0000000000e0 0.0000000000e0 0.0000000000e0
0.0000000000e0 0.0000000000e0 0.0000000000e0
0.0000000000e0 0.0000000000e0 0.0000000000e0
0.0000000000e0 0.0000000000e0 0.0000000000e0
0.0000000000e0 0.0000000000e0 0.0000000000e0
0.0000000000e0 0.0000000000e0 0.0000000000e0
0.0000000000e0 0.0000000000e0 0.0000000000e0
0.0000000000e0 0.0000000000e0 0.0000000000e0
0.0000000000e0 0.0000000000e0 0.0000000000e0
0.0000000000e0 0.0000000000e0 0.0000000000e0
0.0000000000e0 0.0000000000e0 0.0000000000e0
0.0000000000e0 0.0000000000e0 0.0000000000e0
0.0000000000e0 0.0000000000e0 0.0000000000e0
0.0000000000e0 0.0000000000e0 0.0000000000e0
0.0000000000e0 0.0000000000e0 0.0000000000e0
0.0000000000e0 0.0000000000e0 0.0000000000e0
0.0000000000e0 0.0000000000e0 0.0000000000e0
0.0000000000e0 0.0000000000e0 0.0000000000e0
0.0000000000e0 0.0000000000e0 0.0000000000e0
0.0000000000e0 0.0000000000e0 0.0000000000e0
0.0000000000e0 0.0000000000e0 0.0000000000e0
0.0000000000e0 0.0000000000e0 0.0000000000e0
0.0000000000e0 0.0000000000e0 0.0000000000e0
0.0000000000e0 0.0000000000e0 0.0000000000e0
0.0000000000e0 0.0000000000e0 0.0000000000e0
0.0000000000e0 0.0000000000e0 0.0000000000e0
0.0000000000e0 0.0000000000e0 0.0000000000e0
0.0000000000e0 0.0000000000e0 0.0000000000e0
0.0000000000e0 0.0000000000e0 0.0000000000e0
0.0000000000e0 0.0000000000e0 0.0000000000e0
0.0000000000e0 0.0000000000e0 0.0000000000e0
0.0000000000e0 0.0000000000e0 0.0000000000e0
0.0000000000e0 0.0000000000e0 0.0000000000e0
0.0000000000e0 0.0000000000e0 0.0000000000e0
0.0000000000e0 0.0000000000e0 0.0000000000e0
0.0000000000e0 0.0000000000e0 0.0000000000e0
0.0000000000e0 0.0000000000e0 0.0000000000e0
0.0000000000e0 0.0000000000e0 0.0000000000e0
0.0000000000e0 0.0000000000e0 0.0000000000e0
0.0000000000e0 0.0000000000e0 0.0000000000e0
0.0000000000e0 0.0000000000e0 0.0000000000e0
0.0000000000e0 0.0000000000e0 0.0000000000e0
0.0000000000e0 0.0000000000e0 0.0000000000e0
0.0000000000e0 0.0000000000e0 0.0000000000e0
0.0000000000e0 0.0000000000e0 0.0000000000e0
0.0000000000e0 0.0000000000e0 0.0000000000e0
0.0000000000e0 0.0000000000e0 0.0000000000e0
0.0000000000e0 0.0000000000e0 0.0000000000e0
0.0000000000e0 0.0000000000e0 0.0000000000e0
0.0000000000e0 0.0000000000e0 0.0000000000e0
0.0000000000e0 0.0000000000e0 0.0000000000e0
0.0000000000e0 0.0000000000e0 0.0000000000e0
0.0000000000e0 0.0000000000e0 0.0000000000e0
0.0000000000e0 0.0000000000e0 0.0000000000e0
0.0000000000e0 0.0000000000e0 0.0000000000e0
0.0000000000e0 0.0000000000e0 0.0000000000e0
0.0000000000e0 0.0000000000e0 0.0000000000e0
0.0000000000e0 0.0000000000e0 0.0000000000e0
0.0000000000e0 0.0000000000e0 0.0000000000e0
0.0000000000e0 0.0000000000e0 0.0000000000e0
0.0000000000e0 0.0000000000e0 0.0000000000e0
0.0000000000e0 0.0000000000e0 0.0000000000e0
0.0000000000e0 0.0000000000e0 0.0000000000e0
0.0000000000e0 0.0000000000e0 0.0000000000e0
0.0000000000e0 0.0000000000e0 0.0000000000e0
0.0000000000e0 0.0000000000e0 0.0000000000e0
0.0000000000e0 0.0000000000e0 0.0000000000e0
0.0000000000e0 0.0000000000e0 0.0000000000e0
0.0000000000e0 0.0000000000e0 0.0000000000e0
0.0000000000e0 0.0000000000e0 0.0000000000e0
0.0000000000e0 0.0000000000e0 0.0000000000e0
0.0000000000e0 0.0000000000e0 0.0000000000e0
0.0000000000e0 0.0000000000e0 0.0000000000e0
0.0000000000e0 0.0000000000e0 0.0000000000e0
0.0000000000e0 0.0000000000e0 0.0000000000e0
0.0000000000e0 0.0000000000e0 0.0000000000e0
0.0000000000e0 0.0000000000e0 0.0000000000e0
0.0000000000e0 0.0000000000e0 0.0000000000e0
0.0000000000e0 0.0000000000e0 0.0000000000e0
0.0000000000e0 0.0000000000e0 0.0000000000e0
0.0000000000e0 0.0000000000e0 0.0000000000e0
0.0000000000e0 0.0000000000e0 0.0000000000e0
0.0000000000e0 0.0000000000e0 0.0000000000e0
0.0000000000e0 0.0000000000e0 0.0000000000e0
0.0000000000e0 0.0000000000e0 0.0000000000e0
0.0000000000e0 0.0000000000e0 0.0000000000e0
0.0000000000e0 0.0000000000e0 0.0000000000e0
0.0000000000e0 0.0000000000e0 0.0000000000e0
0.0000000000e0 0.0000000000e0 0.0000000000e0
0.0000000000e0 0.0000000000e0 0.0000000000e0
0.0000000000e0 0.0000000000e0 0.0000000000e0
0.0000000000e0 0.0000000000e0 0.0000000000e0
0.0000000000e0 0.0000000000e0 0.0000000000e0
0.0000000000e0 0.0000000000e0 0.0000000000e0
0.0000000000e0 0.0000000000e0 0.0000000000e0
0.0000000000e0 0.0000000000e0 0.0000000000e0
0.0000000000e0 0.0000000000e0 0.0000000000e0
0.0000000000e0 0.0000000000e0 0.0000000000e0
0.0000000000e0 0.0000000000e0 0.0000000000e0
0.0000000000e0 0.0000000000e0 0.0000000000e0
0.0000000000e0 0.0000000000e0 0.0000000000e0
0.0000000000e0 0.0000000000e0 0.0000000000e0
0.0000000000e0 0.0000000000e0 0.0000000000e0
0.0000000000e0 0.0000000000e0 0.0000000000e0
0.0000000000e0 0.0000000000e0 0.0000000000e0
0.0000000000e0 0.0000000000e0 0.0000000000e0
0.0000000000e0 0.0000000000e0 0.0000000000e0
0.0000000000e0 0.0000000000e0 0.0000000000e0
0.0000000000e0 0.0000000000e0 0.0000000000e0
0.0000000000e0 0.0000000000e0 0.0000000000e0
0.0000000000e0 0.0000000000e0 0.0000000000e0
0.0000000000e0 0.0000000000e0 0.0000000000e0
0.0000000000e0 0.0000000000e0 0.0000000000e0
0.0000000000e0 0.0000000000e0 0.0000000000e0
0.0000000000e0 0.0000000000e0 0.0000000000e0
0.0000000000e0 0.0000000000e0 0.0000000000e0
0.0000000000e0 0.0000000000e0 0.0000000000e0
0.0000000000e0 0.0000000000e0 0.0000000000e0
0.0000000000e0 0.0000000000e0 0.0000000000e0
0.0000000000e0 0.0000000000e0 0.0000000000e0
0.0000000000e0 0.0000000000e0 0.0000000000e0
0.0000000000e0 0.0000000000e0 0.0000000000e0
0.0000000000e0 0.0000000000e0 0.0000000000e0
0.0000000000e0 0.0000000000e0 0.0000000000e0
0.0000000000e0 0.0000000000e0 0.0000000000e0
0.0000000000e0 0.0000000000e0 0.0000000000e0
0.0000000000e0 0.0000000000e0 0.0000000000e0
0.0000000000e0 0.0000000000e0 0.0000000000e0
0.0000000000e0 0.0000000000e0 0.0000000000e0
0.0000000000e0 0.0000000000e0 0.0000000000e0
0.0000000000e0 0.0000000000e0 0.0000000000e0
0.0000000000e0 0.0000000000e0 0.0000000000e0
0.0000000000e0 0.0000000000e0 0.0000000000e0
0.0000000000e0 0.0000000000e0 0.0000000000e0
0.0000000000e0 0.0000000000e0 0.0000000000e0
0.0000000000e0 0.0000000000e0 0.0000000000e0
0.0000000000e0 0.0000000000e0 0.0000000000e0
0.0000000000e0 0.0000000000e0 0.0000000000e0
0.0000000000e0 0.0000000000e0 0.0000000000e0
0.0000000000e0 0.0000000000e0 0.0000000000e0
0.0000000000e0 0.0000000000e0 0.0000000000e0
0.0000000000e0 0.0000000000e0 0.0000000000e0
0.0000000000e0 0.0000000000e0 0.0000000000e0
0.0000000000e0 0.0000000000e0 0.0000000000e0
0.0000000000e0 0.0000000000e0 0.0000000000e0
0.0000000000e0 0.0000000000e0 0.0000000000e0
0.0000000000e0 0.0000000000e0 0.0000000000e0
0.0000000000e0 0.0000000000e0 0.0000000000e0
0.0000000000e0 0.0000000000e0 0.0000000000e0
0.0000000000e0 0.0000000000e0 0.0000000000e0
0.0000000000e0 0.0000000000e0 0.0000000000e0
0.0000000000e0 0.0000000000e0 0.0000000000e0
0.0000000000e0 0.0000000000e0 0.0000000000e0