# vtk DataFile Version 3.0
RapidFEM f=1.0000e10Hz
ASCII
DATASET UNSTRUCTURED_GRID
POINTS 222 double
0.0000000000e0 0.0000000000e0 1.0160000000e-2
0.0000000000e0 0.0000000000e0 0.0000000000e0
0.0000000000e0 3.0000000000e-2 1.0160000000e-2
0.0000000000e0 3.0000000000e-2 0.0000000000e0
2.2860000000e-2 0.0000000000e0 1.0160000000e-2
2.2860000000e-2 0.0000000000e0 0.0000000000e0
2.2860000000e-2 3.0000000000e-2 1.0160000000e-2
2.2860000000e-2 3.0000000000e-2 0.0000000000e0
0.0000000000e0 0.0000000000e0 3.3866666667e-3
0.0000000000e0 0.0000000000e0 6.7733333333e-3
0.0000000000e0 3.7500000000e-3 1.0160000000e-2
0.0000000000e0 7.5000000000e-3 1.0160000000e-2
0.0000000000e0 1.1250000000e-2 1.0160000000e-2
0.0000000000e0 1.5000000000e-2 1.0160000000e-2
0.0000000000e0 1.8750000000e-2 1.0160000000e-2
0.0000000000e0 2.2500000000e-2 1.0160000000e-2
0.0000000000e0 2.6250000000e-2 1.0160000000e-2
0.0000000000e0 3.0000000000e-2 3.3866666667e-3
0.0000000000e0 3.0000000000e-2 6.7733333333e-3
0.0000000000e0 3.7500000000e-3 0.0000000000e0
0.0000000000e0 7.5000000000e-3 0.0000000000e0
0.0000000000e0 1.1250000000e-2 0.0000000000e0
0.0000000000e0 1.5000000000e-2 0.0000000000e0
0.0000000000e0 1.8750000000e-2 0.0000000000e0
0.0000000000e0 2.2500000000e-2 0.0000000000e0
0.0000000000e0 2.6250000000e-2 0.0000000000e0
2.2860000000e-2 0.0000000000e0 3.3866666667e-3
2.2860000000e-2 0.0000000000e0 6.7733333333e-3
2.2860000000e-2 3.7500000000e-3 1.0160000000e-2
2.2860000000e-2 7.5000000000e-3 1.0160000000e-2
2.2860000000e-2 1.1250000000e-2 1.0160000000e-2
2.2860000000e-2 1.5000000000e-2 1.0160000000e-2
2.2860000000e-2 1.8750000000e-2 1.0160000000e-2
2.2860000000e-2 2.2500000000e-2 1.0160000000e-2
2.2860000000e-2 2.6250000000e-2 1.0160000000e-2
2.2860000000e-2 3.0000000000e-2 3.3866666667e-3
2.2860000000e-2 3.0000000000e-2 6.7733333333e-3
2.2860000000e-2 3.7500000000e-3 0.0000000000e0
2.2860000000e-2 7.5000000000e-3 0.0000000000e0
2.2860000000e-2 1.1250000000e-2 0.0000000000e0
2.2860000000e-2 1.5000000000e-2 0.0000000000e0
2.2860000000e-2 1.8750000000e-2 0.0000000000e0
2.2860000000e-2 2.2500000000e-2 0.0000000000e0
2.2860000000e-2 2.6250000000e-2 0.0000000000e0
3.8100000000e-3 0.0000000000e0 0.0000000000e0
7.6200000000e-3 0.0000000000e0 0.0000000000e0
1.1430000000e-2 0.0000000000e0 0.0000000000e0
1.5240000000e-2 0.0000000000e0 0.0000000000e0
1.9050000000e-2 0.0000000000e0 0.0000000000e0
3.8100000000e-3 0.0000000000e0 1.0160000000e-2
7.6200000000e-3 0.0000000000e0 1.0160000000e-2
1.1430000000e-2 0.0000000000e0 1.0160000000e-2
1.5240000000e-2 0.0000000000e0 1.0160000000e-2
1.9050000000e-2 0.0000000000e0 1.0160000000e-2
3.8100000000e-3 3.0000000000e-2 0.0000000000e0
7.6200000000e-3 3.0000000000e-2 0.0000000000e0
1.1430000000e-2 3.0000000000e-2 0.0000000000e0
1.5240000000e-2 3.0000000000e-2 0.0000000000e0
1.9050000000e-2 3.0000000000e-2 0.0000000000e0
3.8100000000e-3 3.0000000000e-2 1.0160000000e-2
7.6200000000e-3 3.0000000000e-2 1.0160000000e-2
1.1430000000e-2 3.0000000000e-2 1.0160000000e-2
1.5240000000e-2 3.0000000000e-2 1.0160000000e-2
1.9050000000e-2 3.0000000000e-2 1.0160000000e-2
0.0000000000e0 2.7500000000e-2 5.0800000000e-3
0.0000000000e0 2.5000000000e-3 5.0800000000e-3
0.0000000000e0 2.0625000000e-2 3.2475952642e-3
0.0000000000e0 1.3125000000e-2 3.2475952642e-3
0.0000000000e0 1.6875000000e-2 6.9124047358e-3
0.0000000000e0 9.3750000000e-3 6.9124047358e-3
0.0000000000e0 2.0625000000e-2 7.1112737598e-3
0.0000000000e0 1.6875000000e-2 2.6815190528e-3
0.0000000000e0 1.3125000000e-2 7.0935563920e-3
0.0000000000e0 9.3750000000e-3 3.0487262402e-3
0.0000000000e0 5.1041666667e-3 7.2810585777e-3
0.0000000000e0 2.4375000000e-2 7.2527199361e-3
0.0000000000e0 5.6250000000e-3 2.9072800639e-3
0.0000000000e0 2.4895833333e-2 2.8789414223e-3
0.0000000000e0 2.3750000000e-3 2.2747893461e-3
0.0000000000e0 2.2708333333e-3 7.8908783822e-3
0.0000000000e0 2.7729166667e-2 2.2691216178e-3
0.0000000000e0 2.7625000000e-2 7.8852106539e-3
2.2860000000e-2 2.7500000000e-2 5.0800000000e-3
2.2860000000e-2 2.5000000000e-3 5.0800000000e-3
2.2860000000e-2 2.0625000000e-2 3.2475952642e-3
2.2860000000e-2 1.3125000000e-2 3.2475952642e-3
2.2860000000e-2 1.6875000000e-2 6.9124047358e-3
2.2860000000e-2 9.3750000000e-3 6.9124047358e-3
2.2860000000e-2 2.0625000000e-2 7.1112737598e-3
2.2860000000e-2 1.6875000000e-2 2.6815190528e-3
2.2860000000e-2 1.3125000000e-2 7.0935563920e-3
2.2860000000e-2 9.3750000000e-3 3.0487262402e-3
2.2860000000e-2 5.1041666667e-3 7.2810585777e-3
2.2860000000e-2 5.6250000000e-3 2.9072800639e-3
2.2860000000e-2 2.4375000000e-2 7.2527199361e-3
2.2860000000e-2 2.4895833333e-2 2.8789414223e-3
2.2860000000e-2 2.3750000000e-3 2.2747893461e-3
2.2860000000e-2 2.2708333333e-3 7.8908783822e-3
2.2860000000e-2 2.7729166667e-2 2.2691216178e-3
2.2860000000e-2 2.7625000000e-2 7.8852106539e-3
2.5400000000e-3 0.0000000000e0 5.0800000000e-3
2.0320000000e-2 0.0000000000e0 5.0800000000e-3
9.5250000000e-3 0.0000000000e0 3.2995567884e-3
1.3335000000e-2 0.0000000000e0 6.8604432116e-3
1.3335000000e-2 0.0000000000e0 3.0239138493e-3
9.5250000000e-3 0.0000000000e0 7.1360861507e-3
1.7674166667e-2 0.0000000000e0 7.2786199594e-3
1.7145000000e-2 0.0000000000e0 2.9446098782e-3
5.7150000000e-3 0.0000000000e0 7.2153901218e-3
5.1858333333e-3 0.0000000000e0 2.8813800406e-3
2.0447000000e-2 0.0000000000e0 2.2822553090e-3
2.0552833333e-2 0.0000000000e0 7.8903906585e-3
2.3071666667e-3 0.0000000000e0 2.2696093415e-3
2.4130000000e-3 0.0000000000e0 7.8777446910e-3
2.5400000000e-3 3.0000000000e-2 5.0800000000e-3
2.0320000000e-2 3.0000000000e-2 5.0800000000e-3
9.5250000000e-3 3.0000000000e-2 3.2995567884e-3
1.3335000000e-2 3.0000000000e-2 6.8604432116e-3
1.3335000000e-2 3.0000000000e-2 3.0239138493e-3
9.5250000000e-3 3.0000000000e-2 7.1360861507e-3
1.7674166667e-2 3.0000000000e-2 7.2786199594e-3
1.7145000000e-2 3.0000000000e-2 2.9446098782e-3
5.7150000000e-3 3.0000000000e-2 7.2153901218e-3
5.1858333333e-3 3.0000000000e-2 2.8813800406e-3
2.0447000000e-2 3.0000000000e-2 2.2822553090e-3
2.0552833333e-2 3.0000000000e-2 7.8903906585e-3
2.3071666667e-3 3.0000000000e-2 2.2696093415e-3
2.4130000000e-3 3.0000000000e-2 7.8777446910e-3
3.5640469512e-3 1.6973925004e-2 0.0000000000e0
1.9422938607e-2 1.3159274818e-2 0.0000000000e0
1.3228198684e-2 2.6541484574e-2 0.0000000000e0
8.9852498833e-3 3.2289129824e-3 0.0000000000e0
1.9478692984e-2 2.0676004157e-2 0.0000000000e0
3.2589156307e-3 9.2889145718e-3 0.0000000000e0
1.6779014339e-2 3.4385347671e-3 0.0000000000e0
5.6071260590e-3 2.6822757454e-2 0.0000000000e0
1.7120241859e-2 2.6834256207e-2 0.0000000000e0
1.5674927391e-2 2.2750542155e-2 0.0000000000e0
1.0967110178e-2 2.2914988511e-2 0.0000000000e0
1.2768367916e-2 1.8999264035e-2 0.0000000000e0
7.7335158193e-3 1.8959222464e-2 0.0000000000e0
1.0347301943e-2 1.5272162625e-2 0.0000000000e0
1.5336224468e-2 1.5010009107e-2 0.0000000000e0
1.2375468740e-2 1.1258662568e-2 0.0000000000e0
7.5192278291e-3 1.1193715921e-2 0.0000000000e0
1.0272361073e-2 7.1931763806e-3 0.0000000000e0
1.4624003164e-2 7.2048818491e-3 0.0000000000e0
6.0754171213e-3 6.0782432700e-3 0.0000000000e0
1.2888438077e-2 3.5109176632e-3 0.0000000000e0
1.9078873503e-2 6.4979291921e-3 0.0000000000e0
9.5250000000e-3 2.6700443212e-2 0.0000000000e0
3.4850445877e-3 1.3127357433e-2 0.0000000000e0
3.4987847993e-3 2.0738295907e-2 0.0000000000e0
1.9463144673e-2 1.6886343819e-2 0.0000000000e0
1.6364301507e-2 1.0755699703e-2 0.0000000000e0
1.9836965343e-2 2.4375000000e-2 0.0000000000e0
3.0392400209e-3 2.4384358473e-2 0.0000000000e0
6.7008621052e-3 2.3151415234e-2 0.0000000000e0
6.5680771152e-3 1.5057589101e-2 0.0000000000e0
1.6462787827e-2 1.8750000000e-2 0.0000000000e0
2.9624390712e-3 5.3214146836e-3 0.0000000000e0
5.3630679585e-3 2.8894995730e-3 0.0000000000e0
2.0060936205e-2 2.7833688157e-3 0.0000000000e0
2.0003859309e-2 1.0053019210e-2 0.0000000000e0
2.6100191693e-3 2.7389351939e-2 0.0000000000e0
2.0345441440e-2 2.7491851241e-2 0.0000000000e0
2.7253016753e-3 2.7084265021e-3 0.0000000000e0
3.5640469512e-3 1.6973925004e-2 1.0160000000e-2
1.9422938607e-2 1.3159274818e-2 1.0160000000e-2
1.3228198684e-2 2.6541484574e-2 1.0160000000e-2
8.9852498833e-3 3.2289129824e-3 1.0160000000e-2
1.9478692984e-2 2.0676004157e-2 1.0160000000e-2
3.2589156307e-3 9.2889145718e-3 1.0160000000e-2
1.6779014339e-2 3.4385347671e-3 1.0160000000e-2
5.6071260590e-3 2.6822757454e-2 1.0160000000e-2
1.7120241859e-2 2.6834256207e-2 1.0160000000e-2
1.5674927391e-2 2.2750542155e-2 1.0160000000e-2
1.0967110178e-2 2.2914988511e-2 1.0160000000e-2
1.2768367916e-2 1.8999264035e-2 1.0160000000e-2
7.7335158193e-3 1.8959222464e-2 1.0160000000e-2
1.0347301943e-2 1.5272162625e-2 1.0160000000e-2
1.5336224468e-2 1.5010009107e-2 1.0160000000e-2
1.2375468740e-2 1.1258662568e-2 1.0160000000e-2
7.5192278291e-3 1.1193715921e-2 1.0160000000e-2
1.0272361073e-2 7.1931763806e-3 1.0160000000e-2
1.4624003164e-2 7.2048818491e-3 1.0160000000e-2
6.0754171213e-3 6.0782432700e-3 1.0160000000e-2
1.2888438077e-2 3.5109176632e-3 1.0160000000e-2
1.9078873503e-2 6.4979291921e-3 1.0160000000e-2
9.5250000000e-3 2.6700443212e-2 1.0160000000e-2
3.4850445877e-3 1.3127357433e-2 1.0160000000e-2
3.4987847993e-3 2.0738295907e-2 1.0160000000e-2
1.9463144673e-2 1.6886343819e-2 1.0160000000e-2
1.6364301507e-2 1.0755699703e-2 1.0160000000e-2
1.9836965343e-2 2.4375000000e-2 1.0160000000e-2
3.0392400209e-3 2.4384358473e-2 1.0160000000e-2
6.7008621052e-3 2.3151415234e-2 1.0160000000e-2
6.5680771152e-3 1.5057589101e-2 1.0160000000e-2
1.6462787827e-2 1.8750000000e-2 1.0160000000e-2
2.9624390712e-3 5.3214146836e-3 1.0160000000e-2
5.3630679585e-3 2.8894995730e-3 1.0160000000e-2
2.0060936205e-2 2.7833688157e-3 1.0160000000e-2
2.0003859309e-2 1.0053019210e-2 1.0160000000e-2
2.6100191693e-3 2.7389351939e-2 1.0160000000e-2
2.0345441440e-2 2.7491851241e-2 1.0160000000e-2
2.7253016753e-3 2.7084265021e-3 1.0160000000e-2
5.1831969594e-3 2.4697874459e-2 5.0800000000e-3
1.7169854139e-2 2.0967099590e-2 5.0800000000e-3
4.7369390559e-3 4.7724100808e-3 5.0324941584e-3
[...]
POINT_DATA 222
VECTORS E_real double
1.3172440882e1 -1.3254513341e1 -1.3264511904e1
-1.4037361838e-2 1.4124823289e-2 -1.4747060148e-2
3.4812054295e-1 3.4803668246e-1 -3.6336864434e-1
-4.2645099148e-1 -4.2634826159e-1 -4.2666987809e-1
-7.9679813857e-2 -8.0129115804e-2 -8.0189561331e-2
1.0887510511e-1 1.0948903472e-1 -1.1431232430e-1
-1.7623491638e-1 1.7668530065e-1 -1.8446876840e-1
3.9723879340e-1 -3.9825397305e-1 -3.9855439657e-1
1.2969416117e0 0.0000000000e0 0.0000000000e0
2.3521336410e0 0.0000000000e0 0.0000000000e0
1.0598626471e-14 0.0000000000e0 0.0000000000e0
1.7522580305e-15 0.0000000000e0 0.0000000000e0
3.5237875825e-14 6.7694619874e-14 3.9224452197e-13
-1.7493562887e-13 0.0000000000e0 0.0000000000e0
-3.4775882709e-14 -1.9435778927e-14 -9.7457615750e-13
-1.6675803651e-15 0.0000000000e0 0.0000000000e0
-5.8726547010e-14 0.0000000000e0 0.0000000000e0
-7.6721526270e-1 0.0000000000e0 0.0000000000e0
1.5160319719e0 0.0000000000e0 0.0000000000e0
0.0000000000e0 0.0000000000e0 0.0000000000e0
5.4448024546e-15 0.0000000000e0 0.0000000000e0
0.0000000000e0 0.0000000000e0 0.0000000000e0
0.0000000000e0 0.0000000000e0 -1.5584399392e-12
0.0000000000e0 0.0000000000e0 0.0000000000e0
1.4476468593e-14 0.0000000000e0 0.0000000000e0
0.0000000000e0 0.0000000000e0 0.0000000000e0
-1.4411904127e0 0.0000000000e0 0.0000000000e0
4.0832553596e-1 5.8242430934e-15 -1.6006166032e-12
5.4063687273e-13 -6.1499720020e-13 1.4862750846e-11
9.8044997472e-13 -1.1775612847e-12 -7.0068078132e-12
-2.2313271756e-14 2.8631512130e-14 1.3015728796e-12
-1.3798050463e-12 -1.9055722257e-12 2.2236754975e-11
-6.9010730520e-14 3.1420210635e-14 2.0386068604e-11
1.1090408102e-14 -6.0757304496e-15 -2.9850452957e-11
2.2381381136e-12 7.3224374366e-13 7.1658434134e-12
2.0684663405e-1 5.7160041986e-14 -5.5170909442e-14
3.3594312966e-4 -1.1478030026e-12 -1.0196534674e-12
2.1747524856e-14 -1.0676953850e-13 2.1621049614e-12
0.0000000000e0 0.0000000000e0 -6.3980792276e-13
7.4424470808e-15 6.1103303182e-13 1.3378653126e-12
0.0000000000e0 0.0000000000e0 -1.0069099043e-13
0.0000000000e0 0.0000000000e0 1.0514229108e-11
0.0000000000e0 0.0000000000e0 1.7731897357e-12
1.1070115093e-12 7.7033426151e-13 -8.0476233376e-12
-3.3734923328e0 -1.3510506852e0 1.4680662060e3
0.0000000000e0 0.0000000000e0 2.5552332428e3
2.0111217246e0 -8.3542161367e-1 2.9401727145e3
0.0000000000e0 0.0000000000e0 2.5444272899e3
4.3684755477e-1 -1.5866564528e-1 1.4693741032e3
0.0000000000e0 0.0000000000e0 1.4644903816e3
-6.3484544538e-1 2.6842552741e-1 2.5515409750e3
0.0000000000e0 0.0000000000e0 2.9440067499e3
-1.0608750171e1 4.7482488138e0 2.5447468822e3
-4.3957577212e0 1.5965655014e0 1.4667604325e3
-1.2341899045e0 5.6729371103e-1 5.5524340134e1
1.3508352396e0 -8.5579272384e-1 1.0088126096e2
0.0000000000e0 0.0000000000e0 1.1024933479e2
0.0000000000e0 0.0000000000e0 9.8326541743e1
-4.0903566951e0 -2.1126408675e0 5.9410294668e1
-1.0358982359e0 4.7614921526e-1 5.4278098205e1
6.4194560717e0 3.7062746911e0 9.4173269453e1
4.5001262652e-13 3.9151188853e-13 1.1937373653e2
5.6101271154e0 3.3320434401e0 9.7168727368e1
1.9413666802e0 1.0027024274e0 5.8186946083e1
2.6272557867e1 4.8790013958e1 3.9777761059e0
2.1281202326e0 4.0546566117e0 3.3057002610e-1
-3.2271942095e1 -1.0985211396e1 -6.9580379460e-13
-1.0882509019e1 7.7645723537e1 -3.6885242130e-13
-2.0706633947e1 -4.8367589461e0 -1.0012520134e2
-4.5729830707e0 -8.0278670695e1 2.0748945783e-13
2.0286957519e1 2.0063494707e1 -4.5714157588e1
-7.5319554475e0 0.0000000000e0 0.0000000000e0
7.7347887440e0 -8.0488109372e1 -4.2676324828e0
4.0757947046e0 8.6373375311e1 -1.2161293609e1
-4.2035907590e-1 -3.1956673096e0 -3.7021620057e1
-2.4701131978e1 1.3299004749e1 -6.8335809871e1
-3.3569199255e1 -3.3633785338e0 8.9169391698e1
2.1184114269e1 -1.2712813074e1 -5.9066033569e1
2.0898492116e1 2.1361650711e1 3.5480080654e1
2.1740393237e0 -4.6241926392e1 4.5551513222e1
1.7924544465e1 -3.7005607837e1 4.6247113867e1
-1.8187034218e1 3.7996748026e1 4.2882969583e1
-2.6476309993e1 5.4098572587e1 4.4105748685e0
7.1183145800e0 2.2742875249e0 1.8541922498e-1
1.5243135798e1 -4.3964518163e1 -1.2901122306e-11
6.4633854905e0 6.8584422596e1 2.5706882756e-12
-2.4540103071e1 -2.8117170715e1 -1.3508779226e-11
-1.2560814655e1 -4.8095843585e-1 9.9562663263e0
-3.2638388731e0 7.9342624582e0 -3.6836274472e1
1.0360262761e1 3.1798719597e1 -3.3866525456e1
-7.9635051519e1 4.5417531816e1 -1.1472806353e2
1.1136128677e1 -6.9517306808e-1 1.3108622717e1
3.8562967600e0 -2.3142878809e0 -1.0752600928e1
-2.0091463467e1 6.7432367480e1 8.0299047192e0
-1.1113437459e1 6.3148395603e-13 1.5170585121e-11
-2.4575317167e1 -1.2229263635e1 -5.6819375241e1
-1.3999477505e1 1.5345717757e1 -6.8380416173e-1
1.1863611382e1 -1.1306267926e1 2.8975822780e1
-1.6616864576e1 -3.4729212781e1 3.5190428031e1
1.2671517015e1 2.4098565468e1 2.6548432217e1
-2.5710283062e0 -1.9857887409e-1 1.0042833687e3
6.3008057261e0 -6.5602802835e0 1.0043212822e3
-3.5616190506e0 3.4972847904e0 2.9488329198e3
4.1168559825e0 -4.9245646803e1 2.8357580917e3
-3.3650466962e1 2.6506168491e1 2.9416335982e3
3.3902294998e1 5.8955787210e0 2.9444804425e3
-1.3573132351e-1 4.1951763514e0 1.9690821181e3
1.9391653459e0 2.9019620125e1 2.1787481334e3
8.4825905963e0 -3.5413751762e1 2.1969643833e3
-4.2054296390e1 -4.4278261083e0 1.9948843611e3
-1.9640820298e1 1.9746863147e1 9.6048653289e2
1.3888098194e1 -1.8307735396e1 9.4557107986e2
2.4074798342e1 2.3271251278e1 9.5441679286e2
-5.2690951040e1 -7.5499439655e0 1.0010339361e3
6.6568300584e-1 9.2685164835e-1 3.6216244862e1
-2.4291654442e0 -5.2546457421e0 3.6308227861e1
2.4101373207e1 2.9788978419e1 1.2369635477e2
2.0231391249e1 -2.0803911169e1 1.1997614794e2
3.4276072083e1 1.6502325263e1 8.5480297963e1
-3.7927614285e1 -3.0743697225e1 6.6446371583e1
1.2785533999e1 -4.9880793904e0 7.8358388837e1
-3.9035566117e0 1.8064076149e1 9.0451027093e1
-1.1356465174e1 -1.3069816741e1 1.1896182240e2
-2.5625939473e0 -1.6802783599e1 1.8270427768e1
-2.9848808002e1 -1.1994496923e1 6.7726142719e1
2.4617635893e1 1.0254267094e1 6.6027144562e1
3.4391785349e1 -1.1497279493e1 7.9221002238e1
-3.4018863531e1 1.3422631158e1 7.6405295074e1
0.0000000000e0 0.0000000000e0 -1.2405610514e3
5.1034008614e1 6.1230692306e1 -6.5590583697e2
1.5524839907e-1 -2.0638388539e0 -1.3901022999e3
3.1837290068e0 -3.3976399703e1 2.4752509968e3
0.0000000000e0 0.0000000000e0 -1.3073815327e3
2.2304088686e0 2.7886727541e1 1.3424580894e2
-4.5276053892e-1 -2.4335851424e1 1.9031749857e3
-2.1559971386e0 -6.9059210180e1 -9.4388451914e2
4.7819135708e0 -6.3569731359e1 -9.5370063672e2
2.3084620135e1 -1.7886389451e1 -2.2327531237e3
1.4340027249e1 6.5965021825e0 -2.6048736147e3
-1.8818940156e1 -9.7991286371e1 -2.9180925480e3
-7.7555180228e1 4.8384714771e1 -2.5709114633e3
7.8783475732e-1 -1.3875918250e1 -2.2523117753e3
3.5022341947e0 -1.0549460764e0 -1.8418560520e3
-1.8488596756e0 -1.0255178843e0 -6.1842808528e2
-1.0003737302e1 -2.4625709571e0 -5.1312686432e2
1.4751574907e-1 -5.4840670954e1 1.2449658301e3
-4.0148141847e1 -1.6280994227e0 1.1333686605e3
1.1787923701e2 -1.2300026766e1 1.2941848022e3
-8.0563509953e0 -1.5653896503e1 2.4844094400e3
6.1695100975e0 3.8877239189e1 7.6638521599e2
3.3510264613e1 9.6769493239e1 -1.3385152773e3
-1.5407346741e1 2.4609145082e1 -6.6969324649e2
-5.8704074131e1 -1.3154334857e1 -1.3790950006e3
2.8075325769e1 -1.9641027732e1 -1.2043537276e3
1.0767363706e1 -1.3701863487e1 -2.8145817447e2
3.3712759964e0 -8.6375763374e0 -8.8606954956e2
-5.1153057108e0 -7.3064913406e-1 -8.9445908757e2
-8.5533306820e0 6.8063101955e0 -2.0225498853e3
-1.2396557659e2 2.0899781821e1 -1.7226665633e3
5.0264685020e1 2.1383466352e1 -2.2801519050e3
1.5194955372e1 -1.1354626887e0 7.6696548617e2
-2.1424552504e0 2.2864042693e1 1.7688671619e3
-3.8472200245e0 -7.6857877302e0 1.0113806306e3
1.7262828133e1 -9.6158834045e1 -4.6820003430e1
1.5115752297e1 -1.7397304038e1 -3.5997430971e2
-1.1876427019e1 -1.8073976690e1 -3.3543113669e2
1.5302068408e1 3.4672553706e0 1.0047711928e3
-4.3388265463e1 -7.5221375461e-1 -1.2611729507e3
-4.9464126916e1 -9.2506023135e0 -6.9343044140e2
9.0060673382e-1 2.0981091140e1 -1.4136578195e3
-8.0567496165e0 8.5980730361e1 2.4384795366e3
-1.3970195015e1 5.7317258722e-2 -1.3023087226e3
-4.1959378700e1 -3.6808082031e1 1.1726035111e2
2.5668208896e0 1.2857972223e1 1.8695957264e3
-1.5616872592e-1 -5.0022742025e0 -9.2079660667e2
-5.3928556665e0 7.1691464286e1 -9.5120373640e2
-9.0895561143e0 7.0427557242e0 -2.2218957402e3
-1.7523851048e1 -6.6759018249e0 -2.6063186131e3
1.6526666058e1 9.2168728406e1 -2.9189848716e3
7.1729027248e1 -2.1684270732e1 -2.5653959604e3
-8.6951529997e-1 1.5314535322e1 -2.2439446446e3
-1.1728237051e1 3.5327899198e0 -1.8397378379e3
1.3657780998e1 7.5756418175e0 -6.2140490513e2
8.8667805109e0 2.1826918790e0 -5.1358167033e2
-6.6939581999e-3 2.4885557055e0 1.2205622401e3
4.5201547705e1 -2.2228422500e0 1.1265816376e3
-1.2595827700e2 4.0628556099e0 1.2804233030e3
2.1013327213e1 -9.8728615811e0 2.4584467695e3
-3.4669117594e1 -3.0875648419e1 7.7318406082e2
-2.4786604086e1 -4.9367241557e1 -1.3672559281e3
5.1514580327e0 -2.5557089707e1 -6.7478143037e2
4.4316822736e1 9.7119960131e0 -1.3921216665e3
2.6021637577e0 -1.0676221281e-2 -1.2360859367e3
-1.6443274477e1 8.0590456868e0 -2.8540454505e2
-1.4965583787e-1 3.8343455871e-1 -8.8545080932e2
5.2048858993e-13 2.7431397484e-13 -9.0338981419e2
1.3631234588e1 -1.0847050629e1 -2.0224848476e3
1.2144026595e2 -1.9911499702e1 -1.7200872373e3
-5.0249462710e1 -1.9041449116e1 -2.2792379414e3
5.3091935385e1 1.1051382387e2 7.6341509828e2
1.0227396012e1 -1.0914562580e2 1.8474098064e3
4.9062581377e0 9.7887339196e0 1.0117747948e3
5.7104206137e1 1.0679422327e1 -5.8372152967e1
-1.6056336988e1 1.8485305395e1 -3.6359748338e2
1.3299679907e1 1.2529899009e1 -3.3797954292e2
-3.0824208530e1 -1.2710652975e1 9.9599673107e2
-1.2273172659e1 -3.7399355879e1 -1.4464436532e3
-2.6165043082e-2 -7.9959349912e-1 -2.1103895977e3
2.2488196142e0 -1.6808972397e0 1.3210916101e3
-3.0028983718e0 6.8551507596e-1 -2.0097438659e3
-1.0677309563e0 -6.3763194248e0 1.9071031792e3
1.1111210914e1 7.4052505259e0 -1.3538933545e3
9.9134203623e0 -1.4256417563e0 2.3490310886e2
-2.6994278175e0 -2.8542867994e0 -3.1154049341e2
9.6686437592e0 -3.3347938261e1 -2.1941602514e3
-5.0258730581e0 1.1393706183e0 2.0909137035e3
3.2950861129e0 -1.5535688721e0 -2.9202014149e2
-2.7374098770e1 -2.4302942975e1 -1.0173796253e3
6.2389737462e0 1.4569935197e1 -2.5780952027e3
-7.8376109699e0 -1.4279210651e1 -2.7730249561e3
4.2534330238e1 -5.7395965687e1 1.2023445552e3
7.1925033978e0 -1.2218118206e1 -9.0026619691e2
VECTORS E_imag double
-2.6142610528e1 2.6305495170e1 2.6325338763e1
1.3333456104e0 -1.3416531787e0 1.4007566480e0
-2.5373466967e0 -2.5367354627e0 2.6484855551e0
2.4027623901e0 2.4021835768e0 2.4039956678e0
1.2773558394e0 1.2845586482e0 1.2855276571e0
-1.1192943365e0 -1.1256058614e0 1.1751918591e0
2.5069224173e0 -2.5133290842e0 2.6240480619e0
-2.3883591294e0 2.3944627971e0 2.3962690639e0
-5.6622600108e-1 0.0000000000e0 0.0000000000e0
-3.6437391118e0 0.0000000000e0 0.0000000000e0
-5.6028230370e-14 0.0000000000e0 0.0000000000e0
-1.0872000897e-14 0.0000000000e0 0.0000000000e0
-3.8048611060e-14 -3.2720842706e-14 8.7611235055e-13
8.2387326661e-14 0.0000000000e0 0.0000000000e0
-8.5388212526e-14 -1.3540969307e-13 -3.8096816452e-13
-1.5397016717e-13 0.0000000000e0 0.0000000000e0
5.2151945226e-14 0.0000000000e0 0.0000000000e0
-7.6124791969e0 0.0000000000e0 0.0000000000e0
5.8868905650e0 0.0000000000e0 0.0000000000e0
0.0000000000e0 0.0000000000e0 0.0000000000e0
-6.1695278339e-15 0.0000000000e0 0.0000000000e0
0.0000000000e0 0.0000000000e0 0.0000000000e0
0.0000000000e0 0.0000000000e0 -1.3661789956e-12
0.0000000000e0 0.0000000000e0 0.0000000000e0
-1.3443436462e-14 0.0000000000e0 0.0000000000e0
0.0000000000e0 0.0000000000e0 0.0000000000e0
1.6701359575e0 0.0000000000e0 0.0000000000e0
6.2517133010e-1 3.0239041322e-14 6.8524022236e-14
1.6297290972e-13 -4.4180024754e-13 -1.1392284844e-11
2.6220456068e-13 -7.3098944774e-13 1.6257516987e-11
2.3666308568e-14 -2.5755025370e-14 4.8125321657e-12
1.6383504974e-13 9.8611861061e-13 2.0586830553e-11
-1.0625065819e-13 2.2037639874e-13 -1.8830556062e-12
-5.2230549655e-14 -7.3133425331e-14 4.9669763138e-12
1.0350537841e-12 4.7318279288e-13 -1.2234597830e-11
5.3650957280e0 7.0874271123e-15 -1.3761769007e-12
-2.2822867461e0 1.5692062470e-14 -2.5048705267e-11
4.4261429168e-14 -1.4644474275e-13 -1.4177854277e-12
0.0000000000e0 0.0000000000e0 2.6181026944e-12
-3.7843633733e-14 -5.8867658787e-14 7.0954713316e-12
0.0000000000e0 0.0000000000e0 2.1082821646e-13
0.0000000000e0 0.0000000000e0 1.7872388364e-12
0.0000000000e0 0.0000000000e0 -5.8878250194e-13
4.8579467739e-13 5.5772322768e-13 1.3794161777e-11
2.7570793645e0 1.1041833202e0 7.0249734438e0
0.0000000000e0 0.0000000000e0 -5.6667111932e0
8.0566934862e0 -3.3467570813e0 1.1587820052e0
0.0000000000e0 0.0000000000e0 -3.0447909525e-1
-1.8921280132e0 6.8723221380e-1 3.1008870317e0
0.0000000000e0 0.0000000000e0 5.6158143556e0
-5.2397308094e0 2.2154644350e0 1.1282500688e0
0.0000000000e0 0.0000000000e0 2.5938693874e0
-2.5862917857e0 1.1575686773e0 -1.2203918786e0
2.9558488861e0 -1.0735819984e0 3.4222606030e0
5.3028334483e0 -2.4374401823e0 1.4731579155e3
-6.5587695809e-3 4.1551679422e-3 2.5537295931e3
0.0000000000e0 0.0000000000e0 2.9476133527e3
0.0000000000e0 0.0000000000e0 2.5555948078e3
-8.9066059750e0 -4.6002002211e0 1.4735809970e3
-9.4713182333e0 4.3534785444e0 1.4756393444e3
-7.6051184335e0 -4.3908171748e0 2.5491915935e3
-9.9011902179e-13 -1.1201387761e-12 2.9460837907e3
-3.0323514369e0 -1.8010156464e0 2.5534734396e3
3.6231376791e0 1.8713254857e0 1.4714726608e3
2.8398433994e0 6.5633011970e0 5.3509602805e-1
-2.5623807657e1 5.6175331808e1 4.5798899094e0
8.9350418525e0 -9.4618226101e1 1.7796659479e-13
-2.7036433463e1 -6.3919514935e1 -7.5666425407e-13
2.7861825497e1 3.2432227555e0 6.7137588413e1
2.2877824929e1 -1.8912683858e1 -1.6490868786e-12
-5.9311477516e0 1.0652309084e2 -1.7982648622e0
-1.3895525894e1 0.0000000000e0 0.0000000000e0
1.0630523993e1 7.4551633038e1 -4.0715560072e1
-8.9616391464e0 2.7870262121e1 -3.6723968240e1
1.5316486699e0 -2.9565180560e0 -3.4251089853e1
-1.9547569535e1 4.8260918102e0 -2.4798464139e1
-1.4598869952e1 -7.0021508681e-1 1.8563998290e1
1.6741065416e1 -3.8964339991e0 -1.8103538536e1
1.5594609970e1 3.0931810206e1 3.8752783922e1
-2.2180261949e1 -2.7864029833e1 2.6657141587e1
2.3489020531e1 -2.6667201848e1 4.0387850576e1
-2.4173338477e1 2.7102333209e1 3.8828757118e1
-4.1828577886e0 2.5182615252e0 2.0531005655e-1
2.5805387666e1 5.7649239498e1 4.7000553760e0
-6.5473707000e-1 -8.9664787288e1 -1.0848065401e-13
2.3690387470e1 -3.2949019579e1 5.0265083052e-12
-1.4825098775e1 9.7354896351e1 -4.8198793586e-12
-5.5401862042e-1 9.2590569671e-1 -1.9167069381e1
-1.1429127395e1 -1.0754729553e2 -5.3663510525e0
3.0208158456e0 -1.1454284044e2 -3.0118891287e1
2.7028745616e1 -2.8640619478e1 4.5554045569e0
9.4027549503e-1 7.3295860661e-1 -1.3821130712e1
1.7060370868e1 -1.1372513320e1 -5.2838758003e1
3.4978292932e0 3.1332256841e1 3.7310722799e0
-3.7050814935e0 8.4593130548e-13 -1.1682695538e-11
-1.0804654402e1 -3.6141133258e0 -1.6791825521e1
-1.2532753734e1 2.1825421542e1 -9.7253933104e-1
8.9586977520e0 -2.7455150646e1 3.3252998140e1
-1.7351466144e1 -1.8164551574e1 2.8935291540e1
1.3897032395e1 1.3827236320e1 2.3131074795e1
2.0273343574e0 1.6075363615e0 5.5761721145e0
5.6047180840e0 -4.8002506135e0 5.0313601837e0
2.6873492867e1 -1.5333721084e1 -5.2635271162e1
1.4040083373e1 2.2321494186e1 3.1792509679e0
-2.9129067044e0 -1.0764685963e1 -3.0125291166e1
8.3138723569e0 5.5203154651e0 -2.6599124035e1
1.2888021245e1 -1.7165367895e1 -6.1337973960e1
1.4573246779e1 1.9575563259e1 1.2865159115e1
5.1226070312e1 -3.9965597797e1 3.1387857825e1
-5.1559661292e1 -7.6915717213e0 -1.0211007066e1
-3.4696551000e1 2.8287920370e1 -6.1168359000e1
2.4893843332e1 -9.3902080520e0 2.6368895776e1
2.9304622841e1 1.6321534617e1 3.5916395051e1
-3.3555955096e1 -3.7254206356e1 -1.5985516778e1
-1.2695277951e0 -4.4852288862e-1 1.0007234335e3
-1.0650788417e1 2.1837530834e0 1.0043468062e3
6.4393573588e0 -6.8640017781e1 2.8412814571e3
1.1128708031e0 5.6400605074e1 2.8440050542e3
-9.5843425506e0 -2.2225011479e1 2.9648761044e3
-2.5372364236e1 3.4835131179e1 2.9725093664e3
1.3271242104e0 -6.0219990245e0 1.9848163750e3
-5.5698481985e0 -2.4008568911e1 2.1213444039e3
2.8123907282e0 -1.2595989779e1 2.2062234271e3
-1.6047025914e1 -1.6909573350e1 1.9848754041e3
-1.9718718554e1 -2.1208365366e1 9.8688773749e2
1.5818630883e1 1.6823032102e1 9.4255169039e2
2.8236623743e1 -2.9517296687e1 9.5967672034e2
-2.8721850408e1 2.7496491126e1 9.9949286949e2
0.0000000000e0 0.0000000000e0 -6.1537133089e2
2.8688889359e1 5.6833992986e0 -1.1870730905e3
-9.1804116648e-1 1.2204241977e1 2.4998898972e3
6.4084565367e0 -6.8390331057e1 -1.3989477681e3
0.0000000000e0 0.0000000000e0 1.7267196255e2
-2.6829472903e1 5.9373675851e1 -1.2862428552e3
1.1216393576e0 6.0288047238e1 -1.1546076922e3
1.2841169394e0 4.1131827138e1 1.8503133474e3
2.0832143947e0 -2.7693804473e1 1.9591937397e3
-1.3534849989e1 1.0487051407e1 1.0920510094e3
-1.0633088703e0 -4.8912872771e-1 1.3784155138e3
3.2620602853e1 2.7338461066e1 -3.7824437648e2
1.1422458132e1 2.5069996958e0 -3.7277448226e2
-3.3939113968e0 5.9776033807e1 -1.9688829289e3
3.3860165714e1 -1.0199389013e1 -1.7715097601e3
-3.1522844442e0 -1.7484961766e0 -2.8553968990e3
-1.2846909581e1 -3.1624607352e0 -2.4857957054e3
-1.3724292288e-1 5.1021630042e1 -2.6922488056e3
4.9166832082e1 -5.8902681068e1 -2.4730495196e3
5.2476304677e0 -9.4306343686e1 -1.8227960465e3
-3.8328898530e0 -1.6081332078e1 -1.5534658056e3
1.0672509736e1 6.7252943459e1 -1.3023038976e3
8.1304709760e0 -7.0684771814e1 2.5496684090e3
5.8346734225e1 -9.3193414265e1 -1.2452724868e3
-8.3568127427e0 -6.5748863299e1 2.1079474213e2
2.1302021850e1 -8.1683206186e1 -6.0895576395e2
-4.9762419403e0 6.3324495771e0 -2.2854183130e3
4.4413492474e1 -1.1379220570e2 8.1315136814e2
2.5207506100e0 3.6005360275e-1 7.8844773572e2
5.5290984728e-1 -4.3997783678e-1 1.2025414372e3
2.2003157221e1 8.5190351000e1 -1.6195208116e3
-5.7834941049e1 5.2439847522e1 -3.9088437730e2
-8.6509040394e0 6.4644999078e-1 -8.7488085779e2
1.2107928783e0 -1.2921446110e1 -8.8134044750e2
1.1734670140e0 -7.4287077531e-1 -4.7169052440e2
1.0162275734e1 1.2609543562e0 -1.1307857559e3
2.5029200346e1 -1.5808737538e1 9.9721425109e2
-1.7290069468e1 -7.0909754823e0 9.5482851505e2
8.7954153362e0 3.9198098693e0 -4.3617970302e2
8.3382370572e1 1.4455836242e0 -5.7478268207e2
-3.1783553356e1 -5.9440453221e0 -1.1911793549e3
-2.6657831618e0 -6.2103732268e1 2.5375657217e3
-1.9936522895e0 2.1276034145e1 -1.3549418684e3
-2.7394035288e-2 1.1239291995e-4 1.6453144917e2
-7.1289951069e1 -6.2537779353e1 -1.3181965346e3
5.3047065602e0 2.6572859010e1 -1.1368932433e3
4.9343672817e-1 1.5805378454e1 1.8225295056e3
3.2647430007e0 -4.3400791846e1 1.8769239257e3
8.8188869950e0 -6.8330362984e0 1.0852331304e3
-2.4002308704e0 -9.1439407948e-1 1.3770235072e3
-3.3344775989e1 -2.5210357860e1 -3.8285849132e2
1.8256679042e1 5.0772851697e1 -3.5944028640e2
3.2031087331e0 -5.6415478643e1 -1.9565371909e3
-2.0555563052e1 6.1917648519e0 -1.7771511115e3
-8.3453749455e0 -4.6289782672e0 -2.8759728773e3
1.3575675569e1 3.3418574847e0 -2.4845574502e3
-5.3989721623e-2 2.0071297994e1 -2.6661544248e3
-1.8515623749e1 9.4245396310e1 -2.4764904132e3
-5.0915462949e0 1.0401829582e2 -1.8173144252e3
3.3735907966e-1 -1.5850414657e-1 -1.5429620241e3
-7.3845871268e1 -1.5675514991e1 -1.2630732869e3
-1.8090903296e1 4.0327528627e1 2.5721733144e3
3.2793929870e1 7.7805971258e1 -1.2102968514e3
-1.4580972507e1 7.0714890742e1 2.0726230020e2
-1.1883715628e2 4.8756799925e-1 -6.2600216972e2
-9.1569289577e0 4.4879205127e0 -2.2852516858e3
-4.0667938759e1 1.0419568908e2 8.1599460483e2
2.3669473727e-14 4.6257938687e-14 7.8279799591e2
-2.8795391371e0 2.2913923611e0 1.2002662224e3
-3.0714768520e1 -8.9872985721e1 -1.6132141637e3
5.7550405345e1 -5.0622433566e1 -3.9261537466e2
3.6516615465e1 8.3783949718e1 -8.7946847445e2