# vtk DataFile Version 3.0
RapidFEM Mode 1 f=9.4145GHz
ASCII
DATASET UNSTRUCTURED_GRID
POINTS 242 double
0.0000000000e0 0.0000000000e0 1.0160000000e-2
0.0000000000e0 0.0000000000e0 0.0000000000e0
0.0000000000e0 3.0000000000e-2 1.0160000000e-2
0.0000000000e0 3.0000000000e-2 0.0000000000e0
2.2860000000e-2 0.0000000000e0 1.0160000000e-2
2.2860000000e-2 0.0000000000e0 0.0000000000e0
2.2860000000e-2 3.0000000000e-2 1.0160000000e-2
2.2860000000e-2 3.0000000000e-2 0.0000000000e0
0.0000000000e0 0.0000000000e0 3.3866666667e-3
0.0000000000e0 0.0000000000e0 6.7733333333e-3
0.0000000000e0 3.7500000000e-3 1.0160000000e-2
0.0000000000e0 7.5000000000e-3 1.0160000000e-2
0.0000000000e0 1.1250000000e-2 1.0160000000e-2
0.0000000000e0 1.5000000000e-2 1.0160000000e-2
0.0000000000e0 1.8750000000e-2 1.0160000000e-2
0.0000000000e0 2.2500000000e-2 1.0160000000e-2
0.0000000000e0 2.6250000000e-2 1.0160000000e-2
0.0000000000e0 3.0000000000e-2 3.3866666667e-3
0.0000000000e0 3.0000000000e-2 6.7733333333e-3
0.0000000000e0 3.7500000000e-3 0.0000000000e0
0.0000000000e0 7.5000000000e-3 0.0000000000e0
0.0000000000e0 1.1250000000e-2 0.0000000000e0
0.0000000000e0 1.5000000000e-2 0.0000000000e0
0.0000000000e0 1.8750000000e-2 0.0000000000e0
0.0000000000e0 2.2500000000e-2 0.0000000000e0
0.0000000000e0 2.6250000000e-2 0.0000000000e0
2.2860000000e-2 0.0000000000e0 3.3866666667e-3
2.2860000000e-2 0.0000000000e0 6.7733333333e-3
2.2860000000e-2 3.7500000000e-3 1.0160000000e-2
2.2860000000e-2 7.5000000000e-3 1.0160000000e-2
2.2860000000e-2 1.1250000000e-2 1.0160000000e-2
2.2860000000e-2 1.5000000000e-2 1.0160000000e-2
2.2860000000e-2 1.8750000000e-2 1.0160000000e-2
2.2860000000e-2 2.2500000000e-2 1.0160000000e-2
2.2860000000e-2 2.6250000000e-2 1.0160000000e-2
2.2860000000e-2 3.0000000000e-2 3.3866666667e-3
2.2860000000e-2 3.0000000000e-2 6.7733333333e-3
2.2860000000e-2 3.7500000000e-3 0.0000000000e0
2.2860000000e-2 7.5000000000e-3 0.0000000000e0
2.2860000000e-2 1.1250000000e-2 0.0000000000e0
2.2860000000e-2 1.5000000000e-2 0.0000000000e0
2.2860000000e-2 1.8750000000e-2 0.0000000000e0
2.2860000000e-2 2.2500000000e-2 0.0000000000e0
2.2860000000e-2 2.6250000000e-2 0.0000000000e0
3.8100000000e-3 0.0000000000e0 0.0000000000e0
7.6200000000e-3 0.0000000000e0 0.0000000000e0
1.1430000000e-2 0.0000000000e0 0.0000000000e0
1.5240000000e-2 0.0000000000e0 0.0000000000e0
1.9050000000e-2 0.0000000000e0 0.0000000000e0
3.8100000000e-3 0.0000000000e0 1.0160000000e-2
7.6200000000e-3 0.0000000000e0 1.0160000000e-2
1.1430000000e-2 0.0000000000e0 1.0160000000e-2
1.5240000000e-2 0.0000000000e0 1.0160000000e-2
1.9050000000e-2 0.0000000000e0 1.0160000000e-2
3.8100000000e-3 3.0000000000e-2 0.0000000000e0
7.6200000000e-3 3.0000000000e-2 0.0000000000e0
1.1430000000e-2 3.0000000000e-2 0.0000000000e0
1.5240000000e-2 3.0000000000e-2 0.0000000000e0
1.9050000000e-2 3.0000000000e-2 0.0000000000e0
3.8100000000e-3 3.0000000000e-2 1.0160000000e-2
7.6200000000e-3 3.0000000000e-2 1.0160000000e-2
1.1430000000e-2 3.0000000000e-2 1.0160000000e-2
1.5240000000e-2 3.0000000000e-2 1.0160000000e-2
1.9050000000e-2 3.0000000000e-2 1.0160000000e-2
0.0000000000e0 2.7067060633e-2 5.0800000000e-3
0.0000000000e0 2.9329393675e-3 5.0800000000e-3
0.0000000000e0 2.0607895740e-2 3.4149433368e-3
0.0000000000e0 1.3125000000e-2 3.2475952642e-3
0.0000000000e0 1.6875000000e-2 6.9124047358e-3
0.0000000000e0 9.3921042596e-3 6.7450566632e-3
0.0000000000e0 2.0575689701e-2 7.5387577184e-3
0.0000000000e0 1.6874109524e-2 3.0751560233e-3
0.0000000000e0 1.3125890476e-2 7.0848439767e-3
0.0000000000e0 9.4243102990e-3 2.6212422816e-3
0.0000000000e0 5.3249758464e-3 7.1684469476e-3
0.0000000000e0 2.4675024154e-2 2.9915530524e-3
0.0000000000e0 2.4145552764e-2 7.0464405194e-3
0.0000000000e0 5.8544472356e-3 3.1135594806e-3
0.0000000000e0 2.7479635784e-2 7.7520655419e-3
0.0000000000e0 2.7479635784e-2 2.4079344581e-3
0.0000000000e0 2.5203642158e-3 7.7520655419e-3
0.0000000000e0 2.5203642158e-3 2.4079344581e-3
2.2860000000e-2 2.7067060633e-2 5.0800000000e-3
2.2860000000e-2 2.9329393675e-3 5.0800000000e-3
2.2860000000e-2 2.0607895740e-2 3.4149433368e-3
2.2860000000e-2 1.3125000000e-2 3.2475952642e-3
2.2860000000e-2 1.6875000000e-2 6.9124047358e-3
2.2860000000e-2 9.3921042596e-3 6.7450566632e-3
2.2860000000e-2 2.0575689701e-2 7.5387577184e-3
2.2860000000e-2 1.6874109524e-2 3.0751560233e-3
2.2860000000e-2 1.3125890476e-2 7.0848439767e-3
2.2860000000e-2 9.4243102990e-3 2.6212422816e-3
2.2860000000e-2 5.3249758464e-3 7.1684469476e-3
2.2860000000e-2 2.4675024154e-2 2.9915530524e-3
2.2860000000e-2 2.4145552764e-2 7.0464405194e-3
2.2860000000e-2 5.8544472356e-3 3.1135594806e-3
2.2860000000e-2 2.7479635784e-2 2.4079344581e-3
2.2860000000e-2 2.7479635784e-2 7.7520655419e-3
2.2860000000e-2 2.5203642158e-3 7.7520655419e-3
2.2860000000e-2 2.5203642158e-3 2.4079344581e-3
2.9329393675e-3 0.0000000000e0 5.0800000000e-3
1.9927060633e-2 0.0000000000e0 5.0800000000e-3
9.5250000000e-3 0.0000000000e0 3.2995567884e-3
1.3335000000e-2 0.0000000000e0 6.8604432116e-3
1.3288060349e-2 0.0000000000e0 2.6642308317e-3
9.5719396507e-3 0.0000000000e0 7.4957691683e-3
1.7465697863e-2 0.0000000000e0 7.1978653226e-3
5.3943021370e-3 0.0000000000e0 2.9621346774e-3
1.6910301746e-2 0.0000000000e0 3.1611541587e-3
5.9496982536e-3 0.0000000000e0 6.9988458413e-3
2.5281752011e-3 0.0000000000e0 7.7655945654e-3
2.5281752011e-3 0.0000000000e0 2.3944054346e-3
2.0331824799e-2 0.0000000000e0 7.7655945654e-3
2.0331824799e-2 0.0000000000e0 2.3944054346e-3
2.9329393675e-3 3.0000000000e-2 5.0800000000e-3
1.9927060633e-2 3.0000000000e-2 5.0800000000e-3
9.5250000000e-3 3.0000000000e-2 3.2995567884e-3
1.3335000000e-2 3.0000000000e-2 6.8604432116e-3
1.3288060349e-2 3.0000000000e-2 2.6642308317e-3
9.5719396507e-3 3.0000000000e-2 7.4957691683e-3
1.7465697863e-2 3.0000000000e-2 7.1978653226e-3
5.3943021370e-3 3.0000000000e-2 2.9621346774e-3
1.6910301746e-2 3.0000000000e-2 3.1611541587e-3
5.9496982536e-3 3.0000000000e-2 6.9988458413e-3
2.5281752011e-3 3.0000000000e-2 7.7655945654e-3
2.5281752011e-3 3.0000000000e-2 2.3944054346e-3
2.0331824799e-2 3.0000000000e-2 7.7655945654e-3
2.0331824799e-2 3.0000000000e-2 2.3944054346e-3
3.0032597289e-3 1.7053382250e-2 0.0000000000e0
1.9374906205e-2 1.3140168730e-2 0.0000000000e0
1.3292324977e-2 2.6390097520e-2 0.0000000000e0
9.5349916220e-3 3.2987589966e-3 0.0000000000e0
1.9282143073e-2 2.0260904772e-2 0.0000000000e0
3.3990631681e-3 9.0777329865e-3 0.0000000000e0
1.6993391798e-2 3.2075459795e-3 0.0000000000e0
5.5706840137e-3 2.6774551281e-2 0.0000000000e0
1.3312591326e-2 3.2785812089e-3 0.0000000000e0
1.1435229781e-2 6.5801018339e-3 0.0000000000e0
7.0221190436e-3 6.8767844285e-3 0.0000000000e0
9.5482210217e-3 9.8627330247e-3 0.0000000000e0
1.3329378341e-2 9.8552977906e-3 0.0000000000e0
1.1442663086e-2 1.3123500598e-2 0.0000000000e0
7.7150351477e-3 1.3129967350e-2 0.0000000000e0
9.6645250455e-3 1.6332769384e-2 0.0000000000e0
1.3347048630e-2 1.6371376085e-2 0.0000000000e0
1.1441262234e-2 1.9616869481e-2 0.0000000000e0
8.0656326056e-3 1.9396484399e-2 0.0000000000e0
9.7574291791e-3 2.2918228652e-2 0.0000000000e0
1.5170836301e-2 1.9788578707e-2 0.0000000000e0
1.7106992305e-2 1.6592316327e-2 0.0000000000e0
1.6701906859e-2 2.3314854219e-2 0.0000000000e0
5.6802354321e-3 3.1827773814e-3 0.0000000000e0
1.5200355414e-2 6.5624135570e-3 0.0000000000e0
1.7104311409e-2 9.8670221071e-3 0.0000000000e0
1.9330824752e-2 6.1670243647e-3 0.0000000000e0
9.2384056136e-3 2.6583295217e-2 0.0000000000e0
1.5284216663e-2 1.3158280273e-2 0.0000000000e0
3.8333502594e-3 1.3112028103e-2 0.0000000000e0
2.9169526120e-3 2.0658918312e-2 0.0000000000e0
1.7211032325e-2 2.6909153486e-2 0.0000000000e0
3.0282716898e-3 2.4278122460e-2 0.0000000000e0
3.1513738996e-3 5.6064197490e-3 0.0000000000e0
1.3272751910e-2 2.2405725716e-2 0.0000000000e0
1.9926363821e-2 2.4391666377e-2 0.0000000000e0
6.1886758944e-3 2.2696242807e-2 0.0000000000e0
6.3313909733e-3 1.6128987380e-2 0.0000000000e0
2.0270458824e-2 1.6842117338e-2 0.0000000000e0
6.3399109015e-3 1.0257232482e-2 0.0000000000e0
2.0306008473e-2 9.5848430404e-3 0.0000000000e0
2.8124266069e-3 2.7969454326e-3 0.0000000000e0
2.0060936205e-2 2.7833688157e-3 0.0000000000e0
2.7164751199e-3 2.7280121283e-2 0.0000000000e0
2.0259599042e-2 2.7402075216e-2 0.0000000000e0
5.3011823629e-3 1.9186803030e-2 0.0000000000e0
3.4850937950e-3 1.6859831270e-2 1.0160000000e-2
1.9856740271e-2 1.2946617750e-2 1.0160000000e-2
1.3325008378e-2 2.6701241003e-2 1.0160000000e-2
9.5676750235e-3 3.6099024795e-3 1.0160000000e-2
1.9460936832e-2 2.0922267013e-2 1.0160000000e-2
3.5778569271e-3 9.7390952284e-3 1.0160000000e-2
1.7289315986e-2 3.2254487189e-3 1.0160000000e-2
5.8666082021e-3 2.6792454020e-2 1.0160000000e-2
9.5474086744e-3 2.6721418791e-2 1.0160000000e-2
1.1424770219e-2 2.3419898166e-2 1.0160000000e-2
1.5837880956e-2 2.3123215571e-2 1.0160000000e-2
1.3311778978e-2 2.0137266975e-2 1.0160000000e-2
9.5306216592e-3 2.0144702209e-2 1.0160000000e-2
1.1417336914e-2 1.6876499402e-2 1.0160000000e-2
1.5144964852e-2 1.6870032650e-2 1.0160000000e-2
1.3195474954e-2 1.3667230616e-2 1.0160000000e-2
9.5129513703e-3 1.3628623915e-2 1.0160000000e-2
1.1418737766e-2 1.0383130519e-2 1.0160000000e-2
1.4794367394e-2 1.0603515601e-2 1.0160000000e-2
1.3102570821e-2 7.0817713478e-3 1.0160000000e-2
7.6891636986e-3 1.0211421293e-2 1.0160000000e-2
5.7530076952e-3 1.3407683673e-2 1.0160000000e-2
6.1580931408e-3 6.6851457810e-3 1.0160000000e-2
1.7179764568e-2 2.6817222619e-2 1.0160000000e-2
7.6596445855e-3 2.3437586443e-2 1.0160000000e-2
5.7556885912e-3 2.0132977893e-2 1.0160000000e-2
3.5291752478e-3 2.3832975635e-2 1.0160000000e-2
1.3621594386e-2 3.4167047832e-3 1.0160000000e-2
7.5757833375e-3 1.6841719727e-2 1.0160000000e-2
1.9943047388e-2 9.3410816876e-3 1.0160000000e-2
1.9026649741e-2 1.6887971897e-2 1.0160000000e-2
5.6489676750e-3 3.0908465141e-3 1.0160000000e-2
1.9831728310e-2 5.7218775397e-3 1.0160000000e-2
1.9708626100e-2 2.4393580251e-2 1.0160000000e-2
9.5872480899e-3 7.5942742841e-3 1.0160000000e-2
[...]
POINT_DATA 242
VECTORS E_real double
0.0000000000e0 0.0000000000e0 0.0000000000e0
0.0000000000e0 0.0000000000e0 0.0000000000e0
1.6948867513e-17 7.8483835013e-18 1.5011072658e-17
3.7868363643e-19 2.1659383751e-18 2.6501476879e-18
-4.7582605193e-18 -2.6564887045e-18 7.4930918441e-18
-4.9026571159e-18 2.1397398224e-19 -2.2396472052e-19
-9.1310283023e-17 -2.0435064864e-17 -1.4771481392e-16
-1.3607063005e-17 1.6249826526e-18 6.1944938461e-17
0.0000000000e0 0.0000000000e0 0.0000000000e0
0.0000000000e0 0.0000000000e0 0.0000000000e0
8.1865520619e-20 0.0000000000e0 0.0000000000e0
0.0000000000e0 0.0000000000e0 -3.7209936241e-18
-2.8537945594e-18 0.0000000000e0 0.0000000000e0
-9.1783320253e-19 0.0000000000e0 0.0000000000e0
2.9686942708e-18 -4.4557102112e-19 -7.7788080635e-19
5.4890006151e-18 -1.0813026370e-18 7.5420963981e-18
-1.1435459330e-17 0.0000000000e0 0.0000000000e0
8.6410985764e-18 -1.6158143680e-17 6.2144480784e-18
9.5984685134e-18 -3.5687625412e-17 -4.0658619726e-19
0.0000000000e0 0.0000000000e0 0.0000000000e0
0.0000000000e0 0.0000000000e0 0.0000000000e0
0.0000000000e0 0.0000000000e0 0.0000000000e0
0.0000000000e0 0.0000000000e0 0.0000000000e0
0.0000000000e0 0.0000000000e0 -1.0290162311e-17
0.0000000000e0 0.0000000000e0 -4.1046236322e-18
0.0000000000e0 0.0000000000e0 -7.6660727310e-18
0.0000000000e0 -5.3661507375e-18 0.0000000000e0
0.0000000000e0 6.3308163661e-18 0.0000000000e0
-4.8487517848e-17 7.7990567063e-18 -3.1891431951e-17
3.8323599280e-17 -6.0410416064e-18 -5.2935236754e-17
7.2370996765e-18 5.6818665828e-32 -1.1682285298e-16
-4.1606646092e-17 -4.5179804923e-17 1.4308105716e-16
-8.4797209701e-18 5.4992510645e-18 1.5566153374e-17
4.1652900050e-17 3.6561583417e-18 7.3485999236e-17
-3.8737254291e-17 1.2203705659e-30 -1.1507186472e-16
-1.3648252196e-17 2.8119567227e-17 4.2931205052e-18
-7.4850193762e-17 -6.4228783496e-17 -1.6514262637e-17
-2.8879744362e-18 0.0000000000e0 -4.3996993266e-33
0.0000000000e0 0.0000000000e0 -1.0011640574e-17
0.0000000000e0 0.0000000000e0 -2.0120687308e-18
3.1033654917e-17 6.4131081686e-18 -5.0968088901e-17
-3.4194729068e-17 3.0794263942e-18 2.3401671318e-17
0.0000000000e0 0.0000000000e0 1.6261368564e-17
-4.0747132434e-17 -7.4644616728e-18 5.2732301934e-17
0.0000000000e0 0.0000000000e0 0.0000000000e0
0.0000000000e0 0.0000000000e0 0.0000000000e0
0.0000000000e0 0.0000000000e0 1.9764700762e-19
0.0000000000e0 0.0000000000e0 0.0000000000e0
0.0000000000e0 0.0000000000e0 0.0000000000e0
1.0227918289e-18 -1.3170412801e-18 -5.4754299812e-19
0.0000000000e0 0.0000000000e0 0.0000000000e0
0.0000000000e0 -2.3042682029e-18 0.0000000000e0
-9.3781747698e-18 -3.9150330417e-17 -5.6768952489e-19
0.0000000000e0 1.1698241023e-18 0.0000000000e0
3.7872190412e-18 -5.4950693232e-18 8.1665245751e-18
0.0000000000e0 0.0000000000e0 5.5712527908e-18
0.0000000000e0 0.0000000000e0 -8.1196616567e-18
0.0000000000e0 0.0000000000e0 -7.1737005304e-18
0.0000000000e0 0.0000000000e0 -1.8221364256e-17
2.0801014665e-18 3.1125689900e-17 -2.7863667893e-17
3.4246737182e-18 -3.8071015167e-17 -5.0436863270e-17
1.3575119909e-17 -5.0467534278e-17 8.7694462893e-17
5.1379184677e-18 -5.5538365283e-17 3.5127502255e-17
-2.6227207364e-17 1.3839566816e-16 -1.6374716162e-16
3.1625099503e-3 3.4728450481e-4 5.3621797450e-5
2.4701530108e-3 -3.5571611018e-5 -5.4923663296e-6
3.2834213820e-4 -1.0235160822e-4 7.1249978766e-4
2.7994364140e-3 -1.1961331007e-3 4.0221168755e-4
2.8768388972e-3 -3.4976457984e-4 2.0665187432e-3
9.1241370932e-4 3.4785839314e-5 3.3415616903e-4
2.8001789713e-3 -1.4234086318e-4 -6.5024094777e-4
2.3364658496e-3 -1.3874454147e-3 -2.5719265526e-4
1.8156487520e-3 -8.6177129701e-4 -4.9336505299e-4
3.7343550778e-3 9.8268493362e-4 1.3872978483e-4
9.4007370751e-4 1.0209457131e-3 -7.5250520511e-4
2.7310722662e-3 -6.2503122743e-5 -6.0041110003e-4
1.0439980782e-3 2.0162673492e-5 1.4620245545e-4
3.0946489632e-3 4.3966984495e-4 -2.0774430009e-3
3.5140528362e-3 3.8336501278e-4 -6.5513197384e-4
1.1130393776e-3 -8.4331748812e-4 3.7345826126e-4
2.1966600747e-3 -1.9227764009e-3 2.7607804065e-3
9.9422005862e-4 3.7589131547e-4 -1.0823777956e-3
-1.1442776015e-3 2.0116036673e-4 3.1059780355e-5
-6.7788212452e-4 -3.9125136556e-3 -6.0410416203e-4
-4.8847847328e-3 -2.0729494719e-4 -1.9912955035e-3
-3.6267973189e-3 5.1255836651e-4 -3.0283554494e-3
-3.7001144540e-3 -3.6637574924e-3 4.5140958198e-4
-1.3160154075e-3 -5.1005336161e-4 -2.4432120848e-4
-1.5072278877e-3 -1.4906079198e-3 -1.0412979038e-3
-1.9991284322e-3 -5.1153124217e-18 -1.2151297517e-17
-7.4877280210e-4 -2.5766885786e-5 2.8314195132e-4
-1.7202744675e-3 6.4701163298e-4 1.2660500278e-3
-2.6585489127e-3 3.7771037429e-5 3.6283227361e-4
-2.4030157508e-3 -2.5063509266e-3 -2.2893064841e-4
-2.9276670231e-3 -3.4299170576e-4 1.6206381372e-3
-6.2556509513e-4 4.4794484530e-5 3.2481127225e-4
-1.5849741649e-3 2.1133903447e-4 -8.1525478852e-5
9.6784423479e-5 4.1881719960e-3 -2.0701496699e-3
-2.6589599197e-3 1.1460457256e-4 2.3092619061e-4
-3.8083997097e-3 -1.0890972346e-3 -5.6114593999e-3
7.2989352875e-3 2.9416832577e-4 1.1000720269e-3
-5.5363412737e-3 3.0273441305e-4 8.3441953200e-4
3.8028856442e-4 1.1623307299e-4 -4.2539821075e-6
1.3153445658e-5 9.5196349725e-4 7.7908370171e-5
-1.4985087771e-3 3.1540150970e-3 8.1706707175e-5
3.7620006518e-4 4.8755995003e-4 -5.5033837222e-4
2.6808076682e-3 3.0614765595e-3 7.8033425300e-4
-2.8936605035e-5 2.1882743757e-3 3.5423989320e-4
-2.6569298655e-4 2.7457908022e-3 -1.1856226815e-3
-2.5068329019e-4 3.7217964092e-3 1.8273148835e-3
7.4317195699e-3 1.5567957303e-3 1.9278364643e-3
2.7259303829e-3 1.4921443975e-4 -4.1084345092e-4
-5.7148229113e-3 1.3957806337e-3 8.6131970978e-4
-1.3002353255e-3 -3.6195484009e-4 -1.9596728203e-4
3.7418256712e-3 -8.0874979422e-5 -5.6395591801e-4
-6.2735718124e-3 -4.4063773119e-5 -9.4553254521e-4
5.5838454085e-5 1.2580692493e-5 3.3073333511e-4
-3.3821809187e-4 -3.1788000688e-4 3.7833735902e-6
2.5715119502e-4 -2.7739625695e-3 1.1625819222e-3
1.0051459634e-3 -3.7731215043e-3 3.8113600227e-4
2.0632900387e-5 -1.5332770694e-3 -2.5258652219e-4
1.1143825139e-3 -1.2351700402e-3 1.0847896871e-4
1.8089078744e-4 -3.9691740112e-3 -1.3185738384e-3
1.9380534205e-4 -2.4731351062e-3 8.6483279938e-4
6.3282899109e-3 -1.0398696149e-3 9.5377948084e-4
1.9506949462e-3 -3.4842718849e-4 -2.9400246184e-4
-3.5100437899e-3 -2.8623301630e-3 5.2902249910e-4
-4.5496854698e-3 -1.4710023365e-3 -1.3791232805e-3
6.5609969106e-3 1.3818147782e-3 1.9997835088e-3
0.0000000000e0 0.0000000000e0 1.9504926761e-3
1.6771871828e-3 -4.2599338380e-3 1.0509007263e-3
-1.2033692684e-3 3.4813920382e-3 1.8729981636e-4
2.9856871573e-4 -2.5988563307e-3 4.8569811819e-3
6.7265747931e-4 -7.2410780988e-5 3.4821505669e-4
-6.0316153460e-4 -3.2236460953e-4 7.6214977059e-4
1.8508177403e-3 -3.6428035398e-3 1.6668828594e-3
1.9763413348e-5 3.7000222937e-3 1.7133454488e-3
1.4405308267e-3 -8.3310416435e-4 8.8704391636e-4
2.4726720942e-4 1.7365751080e-4 2.9278256156e-3
1.0556336168e-7 5.3683807635e-5 2.0932728493e-3
-1.9744181068e-6 -1.0040820995e-3 1.4652792847e-3
-7.8131703814e-4 4.5812374218e-4 4.0974631578e-5
-3.6851622036e-3 -1.7002064555e-3 1.5839664716e-3
4.3476685430e-5 -7.1112079799e-4 2.8853576838e-3
-5.3457273472e-4 -3.2229266524e-4 1.1885799156e-3
1.6215426894e-3 9.5218619195e-4 1.7637175291e-3
1.1549803145e-4 -1.5227321452e-3 3.2333987955e-3
-5.0876951401e-4 2.4440574288e-4 2.6865814293e-3
-1.1804398578e-3 5.1253417535e-4 1.1675813370e-3
0.0000000000e0 0.0000000000e0 1.7173116350e-3
4.9170364801e-4 -2.4484855911e-4 3.4856677860e-3
0.0000000000e0 0.0000000000e0 3.7955861792e-3
-5.2192246125e-4 -2.7894572312e-4 1.4608426590e-3
4.5091608673e-6 5.1162431303e-5 1.4698132020e-3
-8.9234129854e-3 2.5460587306e-3 9.8748139519e-4
-1.0953407116e-4 -2.1005372046e-3 3.1353913863e-3
1.5567932203e-3 -6.8274199206e-4 2.9327982308e-3
0.0000000000e0 0.0000000000e0 1.4097542095e-3
1.3805117530e-4 2.2358691818e-4 2.2845188799e-3
5.8341292672e-4 -3.6082264624e-3 4.8358571721e-4
3.8493706968e-3 -1.1839851476e-4 6.0736002123e-4
-2.9164870527e-4 8.8864074066e-4 1.3661260218e-3
0.0000000000e0 0.0000000000e0 1.7420504945e-3
-2.7086032815e-3 3.3308697778e-3 2.2514332594e-3
0.0000000000e0 0.0000000000e0 1.6814145377e-3
-1.3537396850e-3 -6.2456869584e-4 3.0264313007e-3
-2.9173862535e-5 3.9597256053e-5 -2.6380245100e-3
0.0000000000e0 0.0000000000e0 3.7622907274e-3
-1.9986119561e-3 -2.8864279810e-4 1.0563715529e-4
4.1941727492e-3 4.9717327676e-3 1.9695225142e-4
-3.7533173787e-3 5.2678139788e-3 1.8315102459e-4
7.6345868475e-4 -1.3200392689e-3 7.7992576273e-5
-3.2035621520e-3 -4.4016827979e-3 4.5716485868e-4
9.3247636419e-4 1.5102335499e-3 2.2693253866e-3
6.0623758858e-19 -2.9151370492e-18 -7.4284057385e-4
-3.2642962044e-18 2.3904838965e-17 -2.1930371625e-3
1.9237175686e-3 -4.6267895172e-3 1.0621145117e-4
-6.4714775272e-4 2.4816258636e-3 -4.2401261515e-4
-2.0356964455e-3 2.1914031138e-4 -2.9710911181e-4
1.8536108831e-4 -1.6134538297e-3 -9.5945059382e-4
-5.9465043868e-4 4.5896594753e-4 -2.8766944373e-4
1.0004060150e-3 5.3467516727e-4 -2.1336701051e-3
-1.2672301520e-5 -2.3724544597e-3 -2.3142114095e-3
-1.8843482521e-3 1.0897777033e-3 -1.0299758248e-3
2.5145014803e-3 1.7659521819e-3 -1.1782572864e-3
8.7689348129e-7 4.4594052533e-4 7.6440217857e-4
1.7635189860e-6 8.9683023060e-4 1.0699736597e-4
1.6226849931e-4 -9.5145822393e-5 -2.2115493227e-3
5.9494586330e-3 2.7448745580e-3 -4.9688055715e-4
-1.9289946359e-5 3.1551351976e-4 -2.5941731341e-3
7.9202614465e-4 4.7751073056e-4 5.3677859325e-4
-1.6869523919e-3 -9.9059542773e-4 -1.0510319975e-3
-4.7316187131e-5 6.2381910953e-4 -3.5294238820e-3
5.8604972675e-4 -2.8153007381e-4 -6.8928033610e-4
3.5334654976e-4 -1.5341923716e-4 -1.4201306043e-4
1.3601576539e-17 4.3376158419e-17 -9.5197285011e-4
3.9158562592e-3 1.9492333670e-3 -9.0443020430e-4
3.0798142210e-17 8.5867159004e-18 -2.9822033017e-3
6.5236204872e-4 3.4866022623e-4 -1.1061622162e-3
1.5701430435e-5 1.7815362539e-4 -2.9621604090e-4
2.6570588674e-3 -7.5812112900e-4 -2.0193197716e-3
3.9575633683e-4 7.5894276612e-3 -2.1240178392e-3
-1.3308956353e-3 -7.7713979974e-4 -2.1796367732e-3
1.1584731932e-4 1.8762567613e-4 -3.7427453718e-3
1.9559604179e-17 1.5773846106e-17 -8.2931265563e-4
-3.7261360071e-4 2.3044985683e-3 -2.0805927280e-4
-4.9693660090e-3 1.5284720572e-4 -5.0181229382e-4
4.4934342988e-4 -1.3691296108e-3 -6.3651588658e-5
-7.4507912011e-18 3.6866258691e-18 -1.2193469164e-3
2.2860477258e-3 2.2865305390e-3 -1.2801312121e-4
1.2271431230e-17 2.2129848981e-17 -1.6032627117e-3
2.4810143587e-3 1.1446542637e-3 1.7094886226e-3
3.2858603784e-3 9.4988870541e-4 -6.7110259821e-4
-1.9597923003e-17 1.0395982956e-17 1.0214982909e-3
5.2077457049e-3 2.5796529659e-3 1.9071727059e-4
-3.7776693757e-3 -3.4418471569e-3 -5.6261875607e-4
-1.2687981709e-3 2.4763811574e-3 -1.0393983388e-5
3.1630160817e-3 -3.4749240815e-3 1.6283225092e-4
1.0288605617e-3 1.0981655985e-3 -1.7757958417e-4
-6.8355856216e-4 -1.1070876577e-3 -2.2083106801e-3
-1.4295431768e-3 -7.6226287779e-4 -3.2569283720e-3
2.0616051821e-3 7.3950922775e-4 5.5019525055e-3
-3.7704275218e-3 5.8025931441e-4 7.3988874356e-3
1.7581440109e-3 7.6897551333e-4 -3.9619002027e-3
4.8370096095e-3 -8.2388896473e-4 2.6859232603e-3
-2.3767418981e-3 1.4514908996e-3 1.5231802748e-3
-6.9394914392e-3 -2.3381667355e-4 2.8238072431e-5
3.8331737078e-4 2.4532387472e-3 3.2058641254e-3
-4.5863559819e-3 4.1133607619e-3 -8.5038622176e-3
8.5507456728e-4 -1.7258069212e-3 3.4980788597e-3
1.3900968944e-3 6.6836282744e-4 -1.1607676790e-3
-6.9821726146e-4 1.4574506982e-3 4.4820462278e-3
1.5167479700e-3 -1.5490827142e-4 5.8266644057e-5
-2.4701064039e-3 -1.1076666492e-4 2.3458933211e-4
4.1926392094e-3 -2.9579305149e-3 4.7386107244e-3
-6.5424713753e-3 2.9696817916e-3 -5.4530573850e-3
-6.6667950169e-3 3.0529836886e-3 1.6605010268e-3
4.1007833700e-4 1.4718696119e-3 1.6285850851e-3
2.2428285104e-3 9.6011766490e-4 1.0854179051e-3
-1.3394550481e-3 -1.5817043641e-4 -2.4625285306e-3
-1.3524084361e-3 5.2900419000e-4 6.7712685235e-4
1.9666973497e-3 -4.1589000636e-3 4.5536539275e-4
VECTORS E_imag double
0.0000000000e0 0.0000000000e0 0.0000000000e0
0.0000000000e0 0.0000000000e0 0.0000000000e0
0.0000000000e0 0.0000000000e0 0.0000000000e0
0.0000000000e0 0.0000000000e0 0.0000000000e0
0.0000000000e0 0.0000000000e0 0.0000000000e0
0.0000000000e0 0.0000000000e0 0.0000000000e0
0.0000000000e0 0.0000000000e0 0.0000000000e0
0.0000000000e0 0.0000000000e0 0.0000000000e0
0.0000000000e0 0.0000000000e0 0.0000000000e0
0.0000000000e0 0.0000000000e0 0.0000000000e0
0.0000000000e0 0.0000000000e0 0.0000000000e0
0.0000000000e0 0.0000000000e0 0.0000000000e0
0.0000000000e0 0.0000000000e0 0.0000000000e0
0.0000000000e0 0.0000000000e0 0.0000000000e0
0.0000000000e0 0.0000000000e0 0.0000000000e0
0.0000000000e0 0.0000000000e0 0.0000000000e0
0.0000000000e0 0.0000000000e0 0.0000000000e0
0.0000000000e0 0.0000000000e0 0.0000000000e0
0.0000000000e0 0.0000000000e0 0.0000000000e0
0.0000000000e0 0.0000000000e0 0.0000000000e0
0.0000000000e0 0.0000000000e0 0.0000000000e0
0.0000000000e0 0.0000000000e0 0.0000000000e0
0.0000000000e0 0.0000000000e0 0.0000000000e0
0.0000000000e0 0.0000000000e0 0.0000000000e0
0.0000000000e0 0.0000000000e0 0.0000000000e0
0.0000000000e0 0.0000000000e0 0.0000000000e0
0.0000000000e0 0.0000000000e0 0.0000000000e0
0.0000000000e0 0.0000000000e0 0.0000000000e0
0.0000000000e0 0.0000000000e0 0.0000000000e0
0.0000000000e0 0.0000000000e0 0.0000000000e0
0.0000000000e0 0.0000000000e0 0.0000000000e0
0.0000000000e0 0.0000000000e0 0.0000000000e0
0.0000000000e0 0.0000000000e0 0.0000000000e0
0.0000000000e0 0.0000000000e0 0.0000000000e0
0.0000000000e0 0.0000000000e0 0.0000000000e0
0.0000000000e0 0.0000000000e0 0.0000000000e0
0.0000000000e0 0.0000000000e0 0.0000000000e0
0.0000000000e0 0.0000000000e0 0.0000000000e0
0.0000000000e0 0.0000000000e0 0.0000000000e0
0.0000000000e0 0.0000000000e0 0.0000000000e0
0.0000000000e0 0.0000000000e0 0.0000000000e0
0.0000000000e0 0.0000000000e0 0.0000000000e0
0.0000000000e0 0.0000000000e0 0.0000000000e0
0.0000000000e0 0.0000000000e0 0.0000000000e0
0.0000000000e0 0.0000000000e0 0.0000000000e0
0.0000000000e0 0.0000000000e0 0.0000000000e0
0.0000000000e0 0.0000000000e0 0.0000000000e0
0.0000000000e0 0.0000000000e0 0.0000000000e0
0.0000000000e0 0.0000000000e0 0.0000000000e0
0.0000000000e0 0.0000000000e0 0.0000000000e0
0.0000000000e0 0.0000000000e0 0.0000000000e0
0.0000000000e0 0.0000000000e0 0.0000000000e0
0.0000000000e0 0.0000000000e0 0.0000000000e0
0.0000000000e0 0.0000000000e0 0.0000000000e0
0.0000000000e0 0.0000000000e0 0.0000000000e0
0.0000000000e0 0.0000000000e0 0.0000000000e0
0.0000000000e0 0.0000000000e0 0.0000000000e0
0.0000000000e0 0.0000000000e0 0.0000000000e0
0.0000000000e0 0.0000000000e0 0.0000000000e0
0.0000000000e0 0.0000000000e0 0.0000000000e0
0.0000000000e0 0.0000000000e0 0.0000000000e0
0.0000000000e0 0.0000000000e0 0.0000000000e0
0.0000000000e0 0.0000000000e0 0.0000000000e0
0.0000000000e0 0.0000000000e0 0.0000000000e0
0.0000000000e0 0.0000000000e0 0.0000000000e0
0.0000000000e0 0.0000000000e0 0.0000000000e0
0.0000000000e0 0.0000000000e0 0.0000000000e0
0.0000000000e0 0.0000000000e0 0.0000000000e0
0.0000000000e0 0.0000000000e0 0.0000000000e0
0.0000000000e0 0.0000000000e0 0.0000000000e0
0.0000000000e0 0.0000000000e0 0.0000000000e0
0.0000000000e0 0.0000000000e0 0.0000000000e0
0.0000000000e0 0.0000000000e0 0.0000000000e0
0.0000000000e0 0.0000000000e0 0.0000000000e0
0.0000000000e0 0.0000000000e0 0.0000000000e0
0.0000000000e0 0.0000000000e0 0.0000000000e0
0.0000000000e0 0.0000000000e0 0.0000000000e0
0.0000000000e0 0.0000000000e0 0.0000000000e0
0.0000000000e0 0.0000000000e0 0.0000000000e0
0.0000000000e0 0.0000000000e0 0.0000000000e0
0.0000000000e0 0.0000000000e0 0.0000000000e0
0.0000000000e0 0.0000000000e0 0.0000000000e0
0.0000000000e0 0.0000000000e0 0.0000000000e0
0.0000000000e0 0.0000000000e0 0.0000000000e0
0.0000000000e0 0.0000000000e0 0.0000000000e0
0.0000000000e0 0.0000000000e0 0.0000000000e0
0.0000000000e0 0.0000000000e0 0.0000000000e0
0.0000000000e0 0.0000000000e0 0.0000000000e0
0.0000000000e0 0.0000000000e0 0.0000000000e0
0.0000000000e0 0.0000000000e0 0.0000000000e0
0.0000000000e0 0.0000000000e0 0.0000000000e0
0.0000000000e0 0.0000000000e0 0.0000000000e0
0.0000000000e0 0.0000000000e0 0.0000000000e0
0.0000000000e0 0.0000000000e0 0.0000000000e0
0.0000000000e0 0.0000000000e0 0.0000000000e0
0.0000000000e0 0.0000000000e0 0.0000000000e0
0.0000000000e0 0.0000000000e0 0.0000000000e0
0.0000000000e0 0.0000000000e0 0.0000000000e0
0.0000000000e0 0.0000000000e0 0.0000000000e0
0.0000000000e0 0.0000000000e0 0.0000000000e0
0.0000000000e0 0.0000000000e0 0.0000000000e0
0.0000000000e0 0.0000000000e0 0.0000000000e0
0.0000000000e0 0.0000000000e0 0.0000000000e0
0.0000000000e0 0.0000000000e0 0.0000000000e0
0.0000000000e0 0.0000000000e0 0.0000000000e0
0.0000000000e0 0.0000000000e0 0.0000000000e0
0.0000000000e0 0.0000000000e0 0.0000000000e0
0.0000000000e0 0.0000000000e0 0.0000000000e0
0.0000000000e0 0.0000000000e0 0.0000000000e0
0.0000000000e0 0.0000000000e0 0.0000000000e0
0.0000000000e0 0.0000000000e0 0.0000000000e0
0.0000000000e0 0.0000000000e0 0.0000000000e0
0.0000000000e0 0.0000000000e0 0.0000000000e0
0.0000000000e0 0.0000000000e0 0.0000000000e0
0.0000000000e0 0.0000000000e0 0.0000000000e0
0.0000000000e0 0.0000000000e0 0.0000000000e0
0.0000000000e0 0.0000000000e0 0.0000000000e0
0.0000000000e0 0.0000000000e0 0.0000000000e0
0.0000000000e0 0.0000000000e0 0.0000000000e0
0.0000000000e0 0.0000000000e0 0.0000000000e0
0.0000000000e0 0.0000000000e0 0.0000000000e0
0.0000000000e0 0.0000000000e0 0.0000000000e0
0.0000000000e0 0.0000000000e0 0.0000000000e0
0.0000000000e0 0.0000000000e0 0.0000000000e0
0.0000000000e0 0.0000000000e0 0.0000000000e0
0.0000000000e0 0.0000000000e0 0.0000000000e0
0.0000000000e0 0.0000000000e0 0.0000000000e0
0.0000000000e0 0.0000000000e0 0.0000000000e0
0.0000000000e0 0.0000000000e0 0.0000000000e0
0.0000000000e0 0.0000000000e0 0.0000000000e0
0.0000000000e0 0.0000000000e0 0.0000000000e0
0.0000000000e0 0.0000000000e0 0.0000000000e0
0.0000000000e0 0.0000000000e0 0.0000000000e0
0.0000000000e0 0.0000000000e0 0.0000000000e0
0.0000000000e0 0.0000000000e0 0.0000000000e0
0.0000000000e0 0.0000000000e0 0.0000000000e0
0.0000000000e0 0.0000000000e0 0.0000000000e0
0.0000000000e0 0.0000000000e0 0.0000000000e0
0.0000000000e0 0.0000000000e0 0.0000000000e0
0.0000000000e0 0.0000000000e0 0.0000000000e0
0.0000000000e0 0.0000000000e0 0.0000000000e0
0.0000000000e0 0.0000000000e0 0.0000000000e0
0.0000000000e0 0.0000000000e0 0.0000000000e0
0.0000000000e0 0.0000000000e0 0.0000000000e0
0.0000000000e0 0.0000000000e0 0.0000000000e0
0.0000000000e0 0.0000000000e0 0.0000000000e0
0.0000000000e0 0.0000000000e0 0.0000000000e0
0.0000000000e0 0.0000000000e0 0.0000000000e0
0.0000000000e0 0.0000000000e0 0.0000000000e0
0.0000000000e0 0.0000000000e0 0.0000000000e0
0.0000000000e0 0.0000000000e0 0.0000000000e0
0.0000000000e0 0.0000000000e0 0.0000000000e0
0.0000000000e0 0.0000000000e0 0.0000000000e0
0.0000000000e0 0.0000000000e0 0.0000000000e0
0.0000000000e0 0.0000000000e0 0.0000000000e0
0.0000000000e0 0.0000000000e0 0.0000000000e0
0.0000000000e0 0.0000000000e0 0.0000000000e0
0.0000000000e0 0.0000000000e0 0.0000000000e0
0.0000000000e0 0.0000000000e0 0.0000000000e0
0.0000000000e0 0.0000000000e0 0.0000000000e0
0.0000000000e0 0.0000000000e0 0.0000000000e0
0.0000000000e0 0.0000000000e0 0.0000000000e0
0.0000000000e0 0.0000000000e0 0.0000000000e0
0.0000000000e0 0.0000000000e0 0.0000000000e0
0.0000000000e0 0.0000000000e0 0.0000000000e0
0.0000000000e0 0.0000000000e0 0.0000000000e0
0.0000000000e0 0.0000000000e0 0.0000000000e0
0.0000000000e0 0.0000000000e0 0.0000000000e0
0.0000000000e0 0.0000000000e0 0.0000000000e0
0.0000000000e0 0.0000000000e0 0.0000000000e0
0.0000000000e0 0.0000000000e0 0.0000000000e0
0.0000000000e0 0.0000000000e0 0.0000000000e0
0.0000000000e0 0.0000000000e0 0.0000000000e0
0.0000000000e0 0.0000000000e0 0.0000000000e0
0.0000000000e0 0.0000000000e0 0.0000000000e0
0.0000000000e0 0.0000000000e0 0.0000000000e0
0.0000000000e0 0.0000000000e0 0.0000000000e0