# vtk DataFile Version 3.0
RapidFEM Mode 4 f=10.7676GHz
ASCII
DATASET UNSTRUCTURED_GRID
POINTS 242 double
0.0000000000e0 0.0000000000e0 1.0160000000e-2
0.0000000000e0 0.0000000000e0 0.0000000000e0
0.0000000000e0 3.0000000000e-2 1.0160000000e-2
0.0000000000e0 3.0000000000e-2 0.0000000000e0
2.2860000000e-2 0.0000000000e0 1.0160000000e-2
2.2860000000e-2 0.0000000000e0 0.0000000000e0
2.2860000000e-2 3.0000000000e-2 1.0160000000e-2
2.2860000000e-2 3.0000000000e-2 0.0000000000e0
0.0000000000e0 0.0000000000e0 3.3866666667e-3
0.0000000000e0 0.0000000000e0 6.7733333333e-3
0.0000000000e0 3.7500000000e-3 1.0160000000e-2
0.0000000000e0 7.5000000000e-3 1.0160000000e-2
0.0000000000e0 1.1250000000e-2 1.0160000000e-2
0.0000000000e0 1.5000000000e-2 1.0160000000e-2
0.0000000000e0 1.8750000000e-2 1.0160000000e-2
0.0000000000e0 2.2500000000e-2 1.0160000000e-2
0.0000000000e0 2.6250000000e-2 1.0160000000e-2
0.0000000000e0 3.0000000000e-2 3.3866666667e-3
0.0000000000e0 3.0000000000e-2 6.7733333333e-3
0.0000000000e0 3.7500000000e-3 0.0000000000e0
0.0000000000e0 7.5000000000e-3 0.0000000000e0
0.0000000000e0 1.1250000000e-2 0.0000000000e0
0.0000000000e0 1.5000000000e-2 0.0000000000e0
0.0000000000e0 1.8750000000e-2 0.0000000000e0
0.0000000000e0 2.2500000000e-2 0.0000000000e0
0.0000000000e0 2.6250000000e-2 0.0000000000e0
2.2860000000e-2 0.0000000000e0 3.3866666667e-3
2.2860000000e-2 0.0000000000e0 6.7733333333e-3
2.2860000000e-2 3.7500000000e-3 1.0160000000e-2
2.2860000000e-2 7.5000000000e-3 1.0160000000e-2
2.2860000000e-2 1.1250000000e-2 1.0160000000e-2
2.2860000000e-2 1.5000000000e-2 1.0160000000e-2
2.2860000000e-2 1.8750000000e-2 1.0160000000e-2
2.2860000000e-2 2.2500000000e-2 1.0160000000e-2
2.2860000000e-2 2.6250000000e-2 1.0160000000e-2
2.2860000000e-2 3.0000000000e-2 3.3866666667e-3
2.2860000000e-2 3.0000000000e-2 6.7733333333e-3
2.2860000000e-2 3.7500000000e-3 0.0000000000e0
2.2860000000e-2 7.5000000000e-3 0.0000000000e0
2.2860000000e-2 1.1250000000e-2 0.0000000000e0
2.2860000000e-2 1.5000000000e-2 0.0000000000e0
2.2860000000e-2 1.8750000000e-2 0.0000000000e0
2.2860000000e-2 2.2500000000e-2 0.0000000000e0
2.2860000000e-2 2.6250000000e-2 0.0000000000e0
3.8100000000e-3 0.0000000000e0 0.0000000000e0
7.6200000000e-3 0.0000000000e0 0.0000000000e0
1.1430000000e-2 0.0000000000e0 0.0000000000e0
1.5240000000e-2 0.0000000000e0 0.0000000000e0
1.9050000000e-2 0.0000000000e0 0.0000000000e0
3.8100000000e-3 0.0000000000e0 1.0160000000e-2
7.6200000000e-3 0.0000000000e0 1.0160000000e-2
1.1430000000e-2 0.0000000000e0 1.0160000000e-2
1.5240000000e-2 0.0000000000e0 1.0160000000e-2
1.9050000000e-2 0.0000000000e0 1.0160000000e-2
3.8100000000e-3 3.0000000000e-2 0.0000000000e0
7.6200000000e-3 3.0000000000e-2 0.0000000000e0
1.1430000000e-2 3.0000000000e-2 0.0000000000e0
1.5240000000e-2 3.0000000000e-2 0.0000000000e0
1.9050000000e-2 3.0000000000e-2 0.0000000000e0
3.8100000000e-3 3.0000000000e-2 1.0160000000e-2
7.6200000000e-3 3.0000000000e-2 1.0160000000e-2
1.1430000000e-2 3.0000000000e-2 1.0160000000e-2
1.5240000000e-2 3.0000000000e-2 1.0160000000e-2
1.9050000000e-2 3.0000000000e-2 1.0160000000e-2
0.0000000000e0 2.7067060633e-2 5.0800000000e-3
0.0000000000e0 2.9329393675e-3 5.0800000000e-3
0.0000000000e0 2.0607895740e-2 3.4149433368e-3
0.0000000000e0 1.3125000000e-2 3.2475952642e-3
0.0000000000e0 1.6875000000e-2 6.9124047358e-3
0.0000000000e0 9.3921042596e-3 6.7450566632e-3
0.0000000000e0 2.0575689701e-2 7.5387577184e-3
0.0000000000e0 1.6874109524e-2 3.0751560233e-3
0.0000000000e0 1.3125890476e-2 7.0848439767e-3
0.0000000000e0 9.4243102990e-3 2.6212422816e-3
0.0000000000e0 5.3249758464e-3 7.1684469476e-3
0.0000000000e0 2.4675024154e-2 2.9915530524e-3
0.0000000000e0 2.4145552764e-2 7.0464405194e-3
0.0000000000e0 5.8544472356e-3 3.1135594806e-3
0.0000000000e0 2.7479635784e-2 7.7520655419e-3
0.0000000000e0 2.7479635784e-2 2.4079344581e-3
0.0000000000e0 2.5203642158e-3 7.7520655419e-3
0.0000000000e0 2.5203642158e-3 2.4079344581e-3
2.2860000000e-2 2.7067060633e-2 5.0800000000e-3
2.2860000000e-2 2.9329393675e-3 5.0800000000e-3
2.2860000000e-2 2.0607895740e-2 3.4149433368e-3
2.2860000000e-2 1.3125000000e-2 3.2475952642e-3
2.2860000000e-2 1.6875000000e-2 6.9124047358e-3
2.2860000000e-2 9.3921042596e-3 6.7450566632e-3
2.2860000000e-2 2.0575689701e-2 7.5387577184e-3
2.2860000000e-2 1.6874109524e-2 3.0751560233e-3
2.2860000000e-2 1.3125890476e-2 7.0848439767e-3
2.2860000000e-2 9.4243102990e-3 2.6212422816e-3
2.2860000000e-2 5.3249758464e-3 7.1684469476e-3
2.2860000000e-2 2.4675024154e-2 2.9915530524e-3
2.2860000000e-2 2.4145552764e-2 7.0464405194e-3
2.2860000000e-2 5.8544472356e-3 3.1135594806e-3
2.2860000000e-2 2.7479635784e-2 2.4079344581e-3
2.2860000000e-2 2.7479635784e-2 7.7520655419e-3
2.2860000000e-2 2.5203642158e-3 7.7520655419e-3
2.2860000000e-2 2.5203642158e-3 2.4079344581e-3
2.9329393675e-3 0.0000000000e0 5.0800000000e-3
1.9927060633e-2 0.0000000000e0 5.0800000000e-3
9.5250000000e-3 0.0000000000e0 3.2995567884e-3
1.3335000000e-2 0.0000000000e0 6.8604432116e-3
1.3288060349e-2 0.0000000000e0 2.6642308317e-3
9.5719396507e-3 0.0000000000e0 7.4957691683e-3
1.7465697863e-2 0.0000000000e0 7.1978653226e-3
5.3943021370e-3 0.0000000000e0 2.9621346774e-3
1.6910301746e-2 0.0000000000e0 3.1611541587e-3
5.9496982536e-3 0.0000000000e0 6.9988458413e-3
2.5281752011e-3 0.0000000000e0 7.7655945654e-3
2.5281752011e-3 0.0000000000e0 2.3944054346e-3
2.0331824799e-2 0.0000000000e0 7.7655945654e-3
2.0331824799e-2 0.0000000000e0 2.3944054346e-3
2.9329393675e-3 3.0000000000e-2 5.0800000000e-3
1.9927060633e-2 3.0000000000e-2 5.0800000000e-3
9.5250000000e-3 3.0000000000e-2 3.2995567884e-3
1.3335000000e-2 3.0000000000e-2 6.8604432116e-3
1.3288060349e-2 3.0000000000e-2 2.6642308317e-3
9.5719396507e-3 3.0000000000e-2 7.4957691683e-3
1.7465697863e-2 3.0000000000e-2 7.1978653226e-3
5.3943021370e-3 3.0000000000e-2 2.9621346774e-3
1.6910301746e-2 3.0000000000e-2 3.1611541587e-3
5.9496982536e-3 3.0000000000e-2 6.9988458413e-3
2.5281752011e-3 3.0000000000e-2 7.7655945654e-3
2.5281752011e-3 3.0000000000e-2 2.3944054346e-3
2.0331824799e-2 3.0000000000e-2 7.7655945654e-3
2.0331824799e-2 3.0000000000e-2 2.3944054346e-3
3.0032597289e-3 1.7053382250e-2 0.0000000000e0
1.9374906205e-2 1.3140168730e-2 0.0000000000e0
1.3292324977e-2 2.6390097520e-2 0.0000000000e0
9.5349916220e-3 3.2987589966e-3 0.0000000000e0
1.9282143073e-2 2.0260904772e-2 0.0000000000e0
3.3990631681e-3 9.0777329865e-3 0.0000000000e0
1.6993391798e-2 3.2075459795e-3 0.0000000000e0
5.5706840137e-3 2.6774551281e-2 0.0000000000e0
1.3312591326e-2 3.2785812089e-3 0.0000000000e0
1.1435229781e-2 6.5801018339e-3 0.0000000000e0
7.0221190436e-3 6.8767844285e-3 0.0000000000e0
9.5482210217e-3 9.8627330247e-3 0.0000000000e0
1.3329378341e-2 9.8552977906e-3 0.0000000000e0
1.1442663086e-2 1.3123500598e-2 0.0000000000e0
7.7150351477e-3 1.3129967350e-2 0.0000000000e0
9.6645250455e-3 1.6332769384e-2 0.0000000000e0
1.3347048630e-2 1.6371376085e-2 0.0000000000e0
1.1441262234e-2 1.9616869481e-2 0.0000000000e0
8.0656326056e-3 1.9396484399e-2 0.0000000000e0
9.7574291791e-3 2.2918228652e-2 0.0000000000e0
1.5170836301e-2 1.9788578707e-2 0.0000000000e0
1.7106992305e-2 1.6592316327e-2 0.0000000000e0
1.6701906859e-2 2.3314854219e-2 0.0000000000e0
5.6802354321e-3 3.1827773814e-3 0.0000000000e0
1.5200355414e-2 6.5624135570e-3 0.0000000000e0
1.7104311409e-2 9.8670221071e-3 0.0000000000e0
1.9330824752e-2 6.1670243647e-3 0.0000000000e0
9.2384056136e-3 2.6583295217e-2 0.0000000000e0
1.5284216663e-2 1.3158280273e-2 0.0000000000e0
3.8333502594e-3 1.3112028103e-2 0.0000000000e0
2.9169526120e-3 2.0658918312e-2 0.0000000000e0
1.7211032325e-2 2.6909153486e-2 0.0000000000e0
3.0282716898e-3 2.4278122460e-2 0.0000000000e0
3.1513738996e-3 5.6064197490e-3 0.0000000000e0
1.3272751910e-2 2.2405725716e-2 0.0000000000e0
1.9926363821e-2 2.4391666377e-2 0.0000000000e0
6.1886758944e-3 2.2696242807e-2 0.0000000000e0
6.3313909733e-3 1.6128987380e-2 0.0000000000e0
2.0270458824e-2 1.6842117338e-2 0.0000000000e0
6.3399109015e-3 1.0257232482e-2 0.0000000000e0
2.0306008473e-2 9.5848430404e-3 0.0000000000e0
2.8124266069e-3 2.7969454326e-3 0.0000000000e0
2.0060936205e-2 2.7833688157e-3 0.0000000000e0
2.7164751199e-3 2.7280121283e-2 0.0000000000e0
2.0259599042e-2 2.7402075216e-2 0.0000000000e0
5.3011823629e-3 1.9186803030e-2 0.0000000000e0
3.4850937950e-3 1.6859831270e-2 1.0160000000e-2
1.9856740271e-2 1.2946617750e-2 1.0160000000e-2
1.3325008378e-2 2.6701241003e-2 1.0160000000e-2
9.5676750235e-3 3.6099024795e-3 1.0160000000e-2
1.9460936832e-2 2.0922267013e-2 1.0160000000e-2
3.5778569271e-3 9.7390952284e-3 1.0160000000e-2
1.7289315986e-2 3.2254487189e-3 1.0160000000e-2
5.8666082021e-3 2.6792454020e-2 1.0160000000e-2
9.5474086744e-3 2.6721418791e-2 1.0160000000e-2
1.1424770219e-2 2.3419898166e-2 1.0160000000e-2
1.5837880956e-2 2.3123215571e-2 1.0160000000e-2
1.3311778978e-2 2.0137266975e-2 1.0160000000e-2
9.5306216592e-3 2.0144702209e-2 1.0160000000e-2
1.1417336914e-2 1.6876499402e-2 1.0160000000e-2
1.5144964852e-2 1.6870032650e-2 1.0160000000e-2
1.3195474954e-2 1.3667230616e-2 1.0160000000e-2
9.5129513703e-3 1.3628623915e-2 1.0160000000e-2
1.1418737766e-2 1.0383130519e-2 1.0160000000e-2
1.4794367394e-2 1.0603515601e-2 1.0160000000e-2
1.3102570821e-2 7.0817713478e-3 1.0160000000e-2
7.6891636986e-3 1.0211421293e-2 1.0160000000e-2
5.7530076952e-3 1.3407683673e-2 1.0160000000e-2
6.1580931408e-3 6.6851457810e-3 1.0160000000e-2
1.7179764568e-2 2.6817222619e-2 1.0160000000e-2
7.6596445855e-3 2.3437586443e-2 1.0160000000e-2
5.7556885912e-3 2.0132977893e-2 1.0160000000e-2
3.5291752478e-3 2.3832975635e-2 1.0160000000e-2
1.3621594386e-2 3.4167047832e-3 1.0160000000e-2
7.5757833375e-3 1.6841719727e-2 1.0160000000e-2
1.9943047388e-2 9.3410816876e-3 1.0160000000e-2
1.9026649741e-2 1.6887971897e-2 1.0160000000e-2
5.6489676750e-3 3.0908465141e-3 1.0160000000e-2
1.9831728310e-2 5.7218775397e-3 1.0160000000e-2
1.9708626100e-2 2.4393580251e-2 1.0160000000e-2
9.5872480899e-3 7.5942742841e-3 1.0160000000e-2
[...]
POINT_DATA 242
VECTORS E_real double
0.0000000000e0 0.0000000000e0 0.0000000000e0
0.0000000000e0 0.0000000000e0 0.0000000000e0
-2.0564286670e-17 -9.5227825916e-18 -1.8052488614e-17
-4.3193663662e-19 -2.7093892009e-18 -3.3126451627e-18
5.9931576925e-18 3.4473456536e-18 -9.2828946023e-18
5.9579739895e-18 -2.1659869294e-19 2.2671198256e-19
1.1018012818e-16 2.5035734667e-17 1.7526901303e-16
1.6886833414e-17 -2.4607622367e-18 -7.5139659712e-17
0.0000000000e0 0.0000000000e0 0.0000000000e0
0.0000000000e0 0.0000000000e0 0.0000000000e0
-1.1371379681e-19 0.0000000000e0 0.0000000000e0
0.0000000000e0 0.0000000000e0 4.6487060465e-18
3.5198751968e-18 0.0000000000e0 0.0000000000e0
1.0329831151e-18 0.0000000000e0 0.0000000000e0
-3.5353454698e-18 5.9130618567e-19 8.2075131418e-19
-6.5528752569e-18 1.3208200027e-18 -8.8943907571e-18
1.3335008718e-17 0.0000000000e0 0.0000000000e0
-1.0458171923e-17 1.9319329430e-17 -7.9273660778e-18
-1.1051387228e-17 4.3541498198e-17 3.8034530118e-19
0.0000000000e0 0.0000000000e0 0.0000000000e0
0.0000000000e0 0.0000000000e0 0.0000000000e0
0.0000000000e0 0.0000000000e0 0.0000000000e0
0.0000000000e0 0.0000000000e0 0.0000000000e0
0.0000000000e0 0.0000000000e0 1.2397579300e-17
0.0000000000e0 0.0000000000e0 4.8957238742e-18
0.0000000000e0 0.0000000000e0 9.4122133376e-18
0.0000000000e0 6.4116207286e-18 0.0000000000e0
0.0000000000e0 -7.7016471607e-18 0.0000000000e0
5.6185612039e-17 -1.0158356555e-17 4.2586433904e-17
-4.5545749195e-17 7.9994837408e-18 6.8463540420e-17
-8.7701926238e-18 -6.8656998019e-32 1.4590941099e-16
4.7540295551e-17 5.5252633483e-17 -1.7631867750e-16
9.4089186345e-18 -7.7269704841e-18 -1.9875379642e-17
-5.2008496201e-17 -4.8139275434e-18 -7.8634101047e-17
4.6377785757e-17 -1.4711782498e-30 1.3043982866e-16
1.6069633440e-17 -3.4655471104e-17 -5.4278450706e-18
9.0445704796e-17 7.7789440524e-17 2.1451398103e-17
3.4731890526e-18 0.0000000000e0 5.2912475071e-33
0.0000000000e0 0.0000000000e0 1.1239015583e-17
0.0000000000e0 0.0000000000e0 4.2374238381e-18
-3.6947328297e-17 -7.6742318774e-18 6.0105021932e-17
4.1044319625e-17 -4.2064292705e-18 -2.8389981192e-17
0.0000000000e0 0.0000000000e0 -2.0089413203e-17
4.8243039452e-17 9.7027493499e-18 -6.5989241414e-17
0.0000000000e0 0.0000000000e0 0.0000000000e0
0.0000000000e0 0.0000000000e0 0.0000000000e0
0.0000000000e0 0.0000000000e0 -2.7169443950e-19
0.0000000000e0 0.0000000000e0 0.0000000000e0
0.0000000000e0 0.0000000000e0 0.0000000000e0
-1.3959023009e-18 1.6613560093e-18 7.4728454935e-19
0.0000000000e0 0.0000000000e0 0.0000000000e0
0.0000000000e0 2.7585348280e-18 0.0000000000e0
1.2562283463e-17 4.7027175583e-17 7.3682712242e-19
0.0000000000e0 -1.2851643453e-18 0.0000000000e0
-4.9909211659e-18 7.0296228242e-18 -9.7403320669e-18
0.0000000000e0 0.0000000000e0 -6.8956538105e-18
0.0000000000e0 0.0000000000e0 1.0071295872e-17
0.0000000000e0 0.0000000000e0 9.0001386576e-18
0.0000000000e0 0.0000000000e0 2.1766007598e-17
-3.2610774992e-18 -4.0784794800e-17 3.2382140392e-17
-4.4691693127e-18 4.4947100965e-17 5.9653197349e-17
-1.5518350758e-17 5.8287833766e-17 -9.9621907545e-17
-6.9521777042e-18 6.4034291352e-17 -4.0431770864e-17
3.8356420510e-17 -1.5894751093e-16 1.8679859466e-16
-3.7363525286e-3 -3.8562226709e-4 -5.9541266057e-5
-3.1084638781e-3 3.3542525387e-5 5.1790692570e-6
-3.3850788985e-4 8.4356290269e-5 -9.1048478746e-4
-3.4922110035e-3 1.3850528034e-3 -4.7402185959e-4
-3.5221700111e-3 4.3083948309e-4 -2.5455346780e-3
-1.1433971002e-3 -5.1103814406e-5 -4.9090823109e-4
-3.5716824776e-3 3.5117141593e-4 9.8610452367e-4
-2.7287704751e-3 1.5878569787e-3 4.3976379749e-4
-2.2291014096e-3 1.0195218576e-3 6.1849120573e-4
-4.4613489850e-3 -1.2593698038e-3 -2.1018186689e-4
-1.1038822208e-3 -1.2193481591e-3 9.6722069404e-4
-3.2339226964e-3 8.0040212336e-5 7.6887409503e-4
-1.2588344619e-3 -2.9113817160e-5 -2.1110849005e-4
-3.6837540110e-3 -5.5185853240e-4 2.6075353104e-3
-4.2383525300e-3 -5.8067990963e-4 8.4333958476e-4
-1.4098089344e-3 1.0479115648e-3 -3.2171437952e-4
-2.6709338046e-3 2.4045434572e-3 -3.2437235717e-3
-1.2938842400e-3 -4.5553130463e-4 1.4473470291e-3
1.3540733781e-3 -2.7149744063e-4 -4.1920041258e-5
7.4259715008e-4 4.6773259720e-3 7.2219353990e-4
5.9089002367e-3 2.5689510541e-4 2.4677594665e-3
4.3477780531e-3 -6.4829616308e-4 3.8303368877e-3
4.3901025011e-3 4.3064340624e-3 -6.3285701950e-4
1.5989498191e-3 6.7749893052e-4 2.9738036149e-4
1.8490783992e-3 1.9116021378e-3 1.2775504958e-3
2.3947508282e-3 6.3581756094e-18 1.4647789649e-17
8.6744679620e-4 3.4938632659e-5 -3.8392659127e-4
2.1446869198e-3 -8.1429399548e-4 -1.5443866925e-3
3.3142270028e-3 -4.8034718145e-5 -4.6142619273e-4
2.8404191813e-3 3.0146690452e-3 1.8709335797e-4
3.5860816101e-3 4.2927871745e-4 -2.0283448529e-3
7.0405148375e-4 -5.6282908825e-5 -4.0811549487e-4
1.9326711874e-3 -3.8478321800e-4 1.2398478100e-4
-1.2523001125e-4 -5.0379104823e-3 2.3559386367e-3
3.2833047107e-3 -1.0480851977e-4 -2.7481064531e-4
4.5195424755e-3 1.2947040749e-3 6.6905194970e-3
-8.7410768268e-3 -3.8074447717e-4 -1.3174269566e-3
6.5957735136e-3 -3.6055396960e-4 -9.9409374825e-4
-4.7981713349e-4 -5.0419494001e-5 5.3673281075e-6
-2.8260501089e-5 -1.1513095184e-3 -1.6738804700e-4
1.7522097095e-3 -3.9276776685e-3 2.1533927562e-5
-3.9645701769e-4 -5.3871914392e-4 6.7395287702e-4
-3.0239049977e-3 -3.5652452971e-3 -9.5328389798e-4
3.9038816365e-5 -2.5990344157e-3 -4.7791045713e-4
3.2559339089e-4 -3.3310939400e-3 1.4529209604e-3
3.2171058244e-4 -4.4576898933e-3 -2.3450567248e-3
-8.7290839170e-3 -1.7557786399e-3 -2.1983494566e-3
-3.1638581370e-3 -1.4742550973e-4 4.7684651207e-4
6.8029115650e-3 -1.7163528767e-3 -1.0253129285e-3
1.5430195405e-3 5.3918007248e-4 2.3255893725e-4
-4.5384634508e-3 3.5487835103e-5 6.8402259930e-4
7.4918935307e-3 4.0494409985e-5 1.1291540721e-3
-5.6269167998e-5 -4.5741883090e-5 -3.3328447036e-4
4.7026596029e-4 3.4879486824e-4 -5.2604868199e-6
-2.8529231582e-4 3.3709783687e-3 -1.3588989732e-3
-1.2349668239e-3 4.5155507896e-3 -5.5932223606e-4
-2.5143657183e-5 1.8052887576e-3 3.0780689112e-4
-1.2744021814e-3 1.5027983607e-3 -1.3494151253e-4
-2.1805376544e-4 4.6717524160e-3 1.5894672943e-3
-2.3726024153e-4 3.0708658631e-3 -1.0587450103e-3
-7.4308113929e-3 1.1904236017e-3 -1.1199479689e-3
-2.3107684176e-3 4.4039800118e-4 3.4827157617e-4
4.1262750368e-3 3.3347198356e-3 -6.2189888862e-4
5.3353043481e-3 1.7925351819e-3 1.6493766977e-3
-7.8740582251e-3 -1.6583592658e-3 -2.2850606800e-3
0.0000000000e0 0.0000000000e0 -1.9984222626e-3
-1.9970488277e-3 5.1196707795e-3 -1.5264461785e-3
1.4357287984e-3 -4.2005443301e-3 3.7803532135e-4
-3.8102271841e-4 3.3165675159e-3 -5.8013462314e-3
-7.9481426455e-4 8.5560814243e-5 1.7466122225e-4
7.0806804608e-4 3.7843275160e-4 -3.9152035333e-4
-2.1908761913e-3 4.3544151871e-3 -2.0894162138e-3
-2.2531448068e-5 -4.2182419956e-3 -1.4933734464e-3
-1.6486260073e-3 9.5345213494e-4 -2.2937430040e-5
-2.7598913334e-4 -1.9382912120e-4 -2.5947095840e-3
-2.3118468966e-7 -1.1756801043e-4 -1.5502703647e-3
2.4231569781e-6 1.2322863824e-3 -7.9628496112e-4
9.9357928416e-4 -5.8258330177e-4 7.7769912661e-4
4.3925973437e-3 2.0265925753e-3 -1.1665583158e-3
-5.2434435571e-5 8.5763708287e-4 -3.1720623973e-3
7.2364061335e-4 4.3628125192e-4 -1.1506983649e-3
-2.0157989153e-3 -1.1836974169e-3 -2.1221413726e-3
-1.5246171421e-4 2.0100632904e-3 -3.8872106569e-3
7.0458981382e-4 -3.3847507001e-4 -3.4827411684e-3
1.4966259163e-3 -6.4981873048e-4 -1.4224179572e-3
0.0000000000e0 0.0000000000e0 -1.8517805464e-3
-5.7924290251e-4 3.2935749876e-4 -4.4382041467e-3
0.0000000000e0 0.0000000000e0 -3.9592125579e-3
5.9797244648e-4 3.1959125899e-4 -9.0117696714e-4
-1.2093706657e-5 -1.3721919759e-4 -1.0205333293e-3
1.0552103885e-2 -3.0107623917e-3 -6.5718935819e-4
1.2587830478e-4 2.4139709193e-3 -3.8004117246e-3
-1.7630396865e-3 7.0834967781e-4 -2.9542303262e-3
0.0000000000e0 0.0000000000e0 -1.1926861281e-3
-1.5527331354e-4 -2.5147979780e-4 -2.7396865510e-3
-6.8009314789e-4 4.2061633892e-3 -6.3653830863e-4
-4.6330245810e-3 1.4250205357e-4 -7.3178111226e-4
3.6081317755e-4 -1.0993818369e-3 -1.1478711107e-3
0.0000000000e0 0.0000000000e0 -2.2571422676e-3
3.1574120205e-3 -3.7587434141e-3 -2.6442897712e-3
0.0000000000e0 0.0000000000e0 -2.1448977785e-3
1.8714369572e-3 8.6341632197e-4 -3.1321074769e-3
1.4944707761e-4 -2.0284232817e-4 3.1431187028e-3
0.0000000000e0 0.0000000000e0 -3.6157440639e-3
2.3885636790e-3 2.0977191843e-4 1.6364866907e-4
-4.9625333139e-3 -5.9156119564e-3 1.1156679897e-4
4.3905288847e-3 -6.3826632838e-3 1.0220924808e-4
-8.1606502522e-4 1.6743847610e-3 -6.3227442694e-5
3.7553954997e-3 5.2359348012e-3 -5.5955027999e-4
-1.1930540151e-3 -1.9322636686e-3 -2.6795254417e-3
-8.2392714592e-19 3.5850675791e-18 8.7209077977e-4
5.4654693838e-18 -2.9467231503e-17 2.7635897964e-3
-2.3156985629e-3 5.6092016196e-3 -4.0459233172e-4
7.8965908087e-4 -2.9945336186e-3 1.0183262182e-3
2.3825941710e-3 -2.5648344069e-4 1.0191358333e-4
-2.2257095832e-4 1.9373427743e-3 1.5723989424e-3
7.0310368355e-4 -5.2298801758e-4 5.6662721003e-4
-1.2227516752e-3 -6.5350962176e-4 2.3247483609e-3
1.4550999653e-5 2.7241763436e-3 2.4188448614e-3
2.2490967530e-3 -1.3007232030e-3 8.5393548890e-4
-2.9159398320e-3 -2.0478851767e-3 9.3673925317e-4
-8.4644499670e-7 -4.3045607539e-4 -1.1943623646e-3
-2.0242896241e-6 -1.0294440518e-3 -3.2832716555e-4
-7.8227343857e-5 4.5868452574e-5 2.6837493644e-3
-7.6092478370e-3 -3.5106439227e-3 4.1224263991e-4
1.6672950680e-5 -2.7270896747e-4 3.4846613163e-3
-1.0084745376e-3 -6.0800696597e-4 -2.0327178964e-4
2.1066658500e-3 1.2370553958e-3 2.1012160533e-3
5.2686858466e-5 -6.9462632399e-4 4.8574687336e-3
-7.1921083694e-4 3.4549880456e-4 1.6720777357e-3
-4.0644639964e-4 1.7647461570e-4 8.2542742956e-4
-1.6403164212e-17 -5.2906782629e-17 1.4600620012e-3
-4.5125200304e-3 -2.1109255411e-3 1.8075626519e-3
-3.8148237116e-17 -1.0089780769e-17 3.1562364452e-3
-8.1895306640e-4 -4.3769615655e-4 9.6349146548e-4
-1.4314216240e-5 -1.6241383410e-4 1.3005064215e-4
-2.9487699089e-3 8.4135312165e-4 2.0681982264e-3
-4.7000299717e-4 -9.0132574405e-3 3.0477104900e-3
1.5633232414e-3 9.5677644480e-4 2.8308708211e-3
-1.5466685371e-4 -2.5049757881e-4 4.8871885548e-3
-2.4503873307e-17 -1.8475905859e-17 1.0128181143e-3
4.3400214267e-4 -2.6841674982e-3 5.1849768201e-4
5.8654179728e-3 -1.8040787213e-4 9.2933989954e-4
-5.8449175824e-4 1.7809206061e-3 -3.1373091011e-4
8.8026432267e-18 -4.4192033995e-18 2.2154301452e-3
-2.7455413313e-3 -2.8877375613e-3 3.9985004695e-4
-1.6104241661e-17 -2.4560652371e-17 2.5816151906e-3
-3.1283728202e-3 -1.4433230806e-3 -1.8904734203e-3
-3.8527996476e-3 -1.1137816121e-3 9.6071410298e-4
2.4763426406e-17 -1.1396087029e-17 -1.5568603095e-3
-6.3062425062e-3 -2.8306477610e-3 -2.4868020675e-4
4.5114341738e-3 4.1091917245e-3 5.1846512259e-4
1.3845251608e-3 -2.9603402644e-3 1.0791523512e-4
-3.6979988986e-3 4.2242298645e-3 -3.4317367297e-4
-1.1784246580e-3 -1.4354968205e-3 2.3676048017e-4
8.7280903105e-4 1.4135966679e-3 2.9933388494e-3
1.6865923931e-3 8.7444375769e-4 3.8408680466e-3
-2.4611920257e-3 -8.0732413163e-4 -5.7484054005e-3
4.5598522543e-3 -7.7783083967e-4 -8.9802842003e-3
-2.2110893363e-3 -8.4917835054e-4 5.2788093726e-3
-5.5227167578e-3 1.2335685669e-3 -3.0993483330e-3
2.6719562226e-3 -1.9138452700e-3 -1.4124343152e-3
7.9410765289e-3 4.1973161258e-4 3.6512981159e-4
-5.0495536153e-4 -3.0421998085e-3 -3.6269614158e-3
5.3801734325e-3 -4.7980541705e-3 1.0595698693e-2
-9.2483222230e-4 2.1250051635e-3 -4.0438449742e-3
-1.5477623850e-3 -7.3823500527e-4 2.1986735465e-3
8.8489876005e-4 -1.8437057573e-3 -5.5534824367e-3
-1.4999812118e-3 2.6119767810e-4 5.3969600661e-4
2.6611505402e-3 1.7710063958e-5 -4.4567699501e-4
-4.8751506226e-3 3.4692444738e-3 -4.9810565714e-3
7.5452015962e-3 -3.5302459540e-3 6.6363374401e-3
7.7174474742e-3 -3.5013317034e-3 -1.3329712725e-3
-5.6803121793e-4 -1.5280947459e-3 -1.8328007632e-3
-2.5268926188e-3 -1.2508604532e-3 -1.0141683793e-3
1.5079207117e-3 3.5644574403e-4 2.9463937662e-3
1.6232512909e-3 -6.2369944364e-4 -5.3089881093e-4
-2.4043522963e-3 4.9946012493e-3 -4.7640346833e-4
VECTORS E_imag double
0.0000000000e0 0.0000000000e0 0.0000000000e0
0.0000000000e0 0.0000000000e0 0.0000000000e0
0.0000000000e0 0.0000000000e0 0.0000000000e0
0.0000000000e0 0.0000000000e0 0.0000000000e0
0.0000000000e0 0.0000000000e0 0.0000000000e0
0.0000000000e0 0.0000000000e0 0.0000000000e0
0.0000000000e0 0.0000000000e0 0.0000000000e0
0.0000000000e0 0.0000000000e0 0.0000000000e0
0.0000000000e0 0.0000000000e0 0.0000000000e0
0.0000000000e0 0.0000000000e0 0.0000000000e0
0.0000000000e0 0.0000000000e0 0.0000000000e0
0.0000000000e0 0.0000000000e0 0.0000000000e0
0.0000000000e0 0.0000000000e0 0.0000000000e0
0.0000000000e0 0.0000000000e0 0.0000000000e0
0.0000000000e0 0.0000000000e0 0.0000000000e0
0.0000000000e0 0.0000000000e0 0.0000000000e0
0.0000000000e0 0.0000000000e0 0.0000000000e0
0.0000000000e0 0.0000000000e0 0.0000000000e0
0.0000000000e0 0.0000000000e0 0.0000000000e0
0.0000000000e0 0.0000000000e0 0.0000000000e0
0.0000000000e0 0.0000000000e0 0.0000000000e0
0.0000000000e0 0.0000000000e0 0.0000000000e0
0.0000000000e0 0.0000000000e0 0.0000000000e0
0.0000000000e0 0.0000000000e0 0.0000000000e0
0.0000000000e0 0.0000000000e0 0.0000000000e0
0.0000000000e0 0.0000000000e0 0.0000000000e0
0.0000000000e0 0.0000000000e0 0.0000000000e0
0.0000000000e0 0.0000000000e0 0.0000000000e0
0.0000000000e0 0.0000000000e0 0.0000000000e0
0.0000000000e0 0.0000000000e0 0.0000000000e0
0.0000000000e0 0.0000000000e0 0.0000000000e0
0.0000000000e0 0.0000000000e0 0.0000000000e0
0.0000000000e0 0.0000000000e0 0.0000000000e0
0.0000000000e0 0.0000000000e0 0.0000000000e0
0.0000000000e0 0.0000000000e0 0.0000000000e0
0.0000000000e0 0.0000000000e0 0.0000000000e0
0.0000000000e0 0.0000000000e0 0.0000000000e0
0.0000000000e0 0.0000000000e0 0.0000000000e0
0.0000000000e0 0.0000000000e0 0.0000000000e0
0.0000000000e0 0.0000000000e0 0.0000000000e0
0.0000000000e0 0.0000000000e0 0.0000000000e0
0.0000000000e0 0.0000000000e0 0.0000000000e0
0.0000000000e0 0.0000000000e0 0.0000000000e0
0.0000000000e0 0.0000000000e0 0.0000000000e0
0.0000000000e0 0.0000000000e0 0.0000000000e0
0.0000000000e0 0.0000000000e0 0.0000000000e0
0.0000000000e0 0.0000000000e0 0.0000000000e0
0.0000000000e0 0.0000000000e0 0.0000000000e0
0.0000000000e0 0.0000000000e0 0.0000000000e0
0.0000000000e0 0.0000000000e0 0.0000000000e0
0.0000000000e0 0.0000000000e0 0.0000000000e0
0.0000000000e0 0.0000000000e0 0.0000000000e0
0.0000000000e0 0.0000000000e0 0.0000000000e0
0.0000000000e0 0.0000000000e0 0.0000000000e0
0.0000000000e0 0.0000000000e0 0.0000000000e0
0.0000000000e0 0.0000000000e0 0.0000000000e0
0.0000000000e0 0.0000000000e0 0.0000000000e0
0.0000000000e0 0.0000000000e0 0.0000000000e0
0.0000000000e0 0.0000000000e0 0.0000000000e0
0.0000000000e0 0.0000000000e0 0.0000000000e0
0.0000000000e0 0.0000000000e0 0.0000000000e0
0.0000000000e0 0.0000000000e0 0.0000000000e0
0.0000000000e0 0.0000000000e0 0.0000000000e0
0.0000000000e0 0.0000000000e0 0.0000000000e0
0.0000000000e0 0.0000000000e0 0.0000000000e0
0.0000000000e0 0.0000000000e0 0.0000000000e0
0.0000000000e0 0.0000000000e0 0.0000000000e0
0.0000000000e0 0.0000000000e0 0.0000000000e0
0.0000000000e0 0.0000000000e0 0.0000000000e0
0.0000000000e0 0.0000000000e0 0.0000000000e0
0.0000000000e0 0.0000000000e0 0.0000000000e0
0.0000000000e0 0.0000000000e0 0.0000000000e0
0.0000000000e0 0.0000000000e0 0.0000000000e0
0.0000000000e0 0.0000000000e0 0.0000000000e0
0.0000000000e0 0.0000000000e0 0.0000000000e0
0.0000000000e0 0.0000000000e0 0.0000000000e0
0.0000000000e0 0.0000000000e0 0.0000000000e0
0.0000000000e0 0.0000000000e0 0.0000000000e0
0.0000000000e0 0.0000000000e0 0.0000000000e0
0.0000000000e0 0.0000000000e0 0.0000000000e0
0.0000000000e0 0.0000000000e0 0.0000000000e0
0.0000000000e0 0.0000000000e0 0.0000000000e0
0.0000000000e0 0.0000000000e0 0.0000000000e0
0.0000000000e0 0.0000000000e0 0.0000000000e0
0.0000000000e0 0.0000000000e0 0.0000000000e0
0.0000000000e0 0.0000000000e0 0.0000000000e0
0.0000000000e0 0.0000000000e0 0.0000000000e0
0.0000000000e0 0.0000000000e0 0.0000000000e0
0.0000000000e0 0.0000000000e0 0.0000000000e0
0.0000000000e0 0.0000000000e0 0.0000000000e0
0.0000000000e0 0.0000000000e0 0.0000000000e0
0.0000000000e0 0.0000000000e0 0.0000000000e0
0.0000000000e0 0.0000000000e0 0.0000000000e0
0.0000000000e0 0.0000000000e0 0.0000000000e0
0.0000000000e0 0.0000000000e0 0.0000000000e0
0.0000000000e0 0.0000000000e0 0.0000000000e0
0.0000000000e0 0.0000000000e0 0.0000000000e0
0.0000000000e0 0.0000000000e0 0.0000000000e0
0.0000000000e0 0.0000000000e0 0.0000000000e0
0.0000000000e0 0.0000000000e0 0.0000000000e0
0.0000000000e0 0.0000000000e0 0.0000000000e0
0.0000000000e0 0.0000000000e0 0.0000000000e0
0.0000000000e0 0.0000000000e0 0.0000000000e0
0.0000000000e0 0.0000000000e0 0.0000000000e0
0.0000000000e0 0.0000000000e0 0.0000000000e0
0.0000000000e0 0.0000000000e0 0.0000000000e0
0.0000000000e0 0.0000000000e0 0.0000000000e0
0.0000000000e0 0.0000000000e0 0.0000000000e0
0.0000000000e0 0.0000000000e0 0.0000000000e0
0.0000000000e0 0.0000000000e0 0.0000000000e0
0.0000000000e0 0.0000000000e0 0.0000000000e0
0.0000000000e0 0.0000000000e0 0.0000000000e0
0.0000000000e0 0.0000000000e0 0.0000000000e0
0.0000000000e0 0.0000000000e0 0.0000000000e0
0.0000000000e0 0.0000000000e0 0.0000000000e0
0.0000000000e0 0.0000000000e0 0.0000000000e0
0.0000000000e0 0.0000000000e0 0.0000000000e0
0.0000000000e0 0.0000000000e0 0.0000000000e0
0.0000000000e0 0.0000000000e0 0.0000000000e0
0.0000000000e0 0.0000000000e0 0.0000000000e0
0.0000000000e0 0.0000000000e0 0.0000000000e0
0.0000000000e0 0.0000000000e0 0.0000000000e0
0.0000000000e0 0.0000000000e0 0.0000000000e0
0.0000000000e0 0.0000000000e0 0.0000000000e0
0.0000000000e0 0.0000000000e0 0.0000000000e0
0.0000000000e0 0.0000000000e0 0.0000000000e0
0.0000000000e0 0.0000000000e0 0.0000000000e0
0.0000000000e0 0.0000000000e0 0.0000000000e0
0.0000000000e0 0.0000000000e0 0.0000000000e0
0.0000000000e0 0.0000000000e0 0.0000000000e0
0.0000000000e0 0.0000000000e0 0.0000000000e0
0.0000000000e0 0.0000000000e0 0.0000000000e0
0.0000000000e0 0.0000000000e0 0.0000000000e0
0.0000000000e0 0.0000000000e0 0.0000000000e0
0.0000000000e0 0.0000000000e0 0.0000000000e0
0.0000000000e0 0.0000000000e0 0.0000000000e0
0.0000000000e0 0.0000000000e0 0.0000000000e0
0.0000000000e0 0.0000000000e0 0.0000000000e0
0.0000000000e0 0.0000000000e0 0.0000000000e0
0.0000000000e0 0.0000000000e0 0.0000000000e0
0.0000000000e0 0.0000000000e0 0.0000000000e0
0.0000000000e0 0.0000000000e0 0.0000000000e0
0.0000000000e0 0.0000000000e0 0.0000000000e0
0.0000000000e0 0.0000000000e0 0.0000000000e0
0.0000000000e0 0.0000000000e0 0.0000000000e0
0.0000000000e0 0.0000000000e0 0.0000000000e0
0.0000000000e0 0.0000000000e0 0.0000000000e0
0.0000000000e0 0.0000000000e0 0.0000000000e0
0.0000000000e0 0.0000000000e0 0.0000000000e0
0.0000000000e0 0.0000000000e0 0.0000000000e0
0.0000000000e0 0.0000000000e0 0.0000000000e0
0.0000000000e0 0.0000000000e0 0.0000000000e0
0.0000000000e0 0.0000000000e0 0.0000000000e0
0.0000000000e0 0.0000000000e0 0.0000000000e0
0.0000000000e0 0.0000000000e0 0.0000000000e0
0.0000000000e0 0.0000000000e0 0.0000000000e0
0.0000000000e0 0.0000000000e0 0.0000000000e0
0.0000000000e0 0.0000000000e0 0.0000000000e0
0.0000000000e0 0.0000000000e0 0.0000000000e0
0.0000000000e0 0.0000000000e0 0.0000000000e0
0.0000000000e0 0.0000000000e0 0.0000000000e0
0.0000000000e0 0.0000000000e0 0.0000000000e0
0.0000000000e0 0.0000000000e0 0.0000000000e0
0.0000000000e0 0.0000000000e0 0.0000000000e0
0.0000000000e0 0.0000000000e0 0.0000000000e0
0.0000000000e0 0.0000000000e0 0.0000000000e0
0.0000000000e0 0.0000000000e0 0.0000000000e0
0.0000000000e0 0.0000000000e0 0.0000000000e0
0.0000000000e0 0.0000000000e0 0.0000000000e0
0.0000000000e0 0.0000000000e0 0.0000000000e0
0.0000000000e0 0.0000000000e0 0.0000000000e0
0.0000000000e0 0.0000000000e0 0.0000000000e0
0.0000000000e0 0.0000000000e0 0.0000000000e0
0.0000000000e0 0.0000000000e0 0.0000000000e0
0.0000000000e0 0.0000000000e0 0.0000000000e0
0.0000000000e0 0.0000000000e0 0.0000000000e0