# vtk DataFile Version 3.0
RapidFEM Mode 6 f=10.9342GHz
ASCII
DATASET UNSTRUCTURED_GRID
POINTS 242 double
0.0000000000e0 0.0000000000e0 1.0160000000e-2
0.0000000000e0 0.0000000000e0 0.0000000000e0
0.0000000000e0 3.0000000000e-2 1.0160000000e-2
0.0000000000e0 3.0000000000e-2 0.0000000000e0
2.2860000000e-2 0.0000000000e0 1.0160000000e-2
2.2860000000e-2 0.0000000000e0 0.0000000000e0
2.2860000000e-2 3.0000000000e-2 1.0160000000e-2
2.2860000000e-2 3.0000000000e-2 0.0000000000e0
0.0000000000e0 0.0000000000e0 3.3866666667e-3
0.0000000000e0 0.0000000000e0 6.7733333333e-3
0.0000000000e0 3.7500000000e-3 1.0160000000e-2
0.0000000000e0 7.5000000000e-3 1.0160000000e-2
0.0000000000e0 1.1250000000e-2 1.0160000000e-2
0.0000000000e0 1.5000000000e-2 1.0160000000e-2
0.0000000000e0 1.8750000000e-2 1.0160000000e-2
0.0000000000e0 2.2500000000e-2 1.0160000000e-2
0.0000000000e0 2.6250000000e-2 1.0160000000e-2
0.0000000000e0 3.0000000000e-2 3.3866666667e-3
0.0000000000e0 3.0000000000e-2 6.7733333333e-3
0.0000000000e0 3.7500000000e-3 0.0000000000e0
0.0000000000e0 7.5000000000e-3 0.0000000000e0
0.0000000000e0 1.1250000000e-2 0.0000000000e0
0.0000000000e0 1.5000000000e-2 0.0000000000e0
0.0000000000e0 1.8750000000e-2 0.0000000000e0
0.0000000000e0 2.2500000000e-2 0.0000000000e0
0.0000000000e0 2.6250000000e-2 0.0000000000e0
2.2860000000e-2 0.0000000000e0 3.3866666667e-3
2.2860000000e-2 0.0000000000e0 6.7733333333e-3
2.2860000000e-2 3.7500000000e-3 1.0160000000e-2
2.2860000000e-2 7.5000000000e-3 1.0160000000e-2
2.2860000000e-2 1.1250000000e-2 1.0160000000e-2
2.2860000000e-2 1.5000000000e-2 1.0160000000e-2
2.2860000000e-2 1.8750000000e-2 1.0160000000e-2
2.2860000000e-2 2.2500000000e-2 1.0160000000e-2
2.2860000000e-2 2.6250000000e-2 1.0160000000e-2
2.2860000000e-2 3.0000000000e-2 3.3866666667e-3
2.2860000000e-2 3.0000000000e-2 6.7733333333e-3
2.2860000000e-2 3.7500000000e-3 0.0000000000e0
2.2860000000e-2 7.5000000000e-3 0.0000000000e0
2.2860000000e-2 1.1250000000e-2 0.0000000000e0
2.2860000000e-2 1.5000000000e-2 0.0000000000e0
2.2860000000e-2 1.8750000000e-2 0.0000000000e0
2.2860000000e-2 2.2500000000e-2 0.0000000000e0
2.2860000000e-2 2.6250000000e-2 0.0000000000e0
3.8100000000e-3 0.0000000000e0 0.0000000000e0
7.6200000000e-3 0.0000000000e0 0.0000000000e0
1.1430000000e-2 0.0000000000e0 0.0000000000e0
1.5240000000e-2 0.0000000000e0 0.0000000000e0
1.9050000000e-2 0.0000000000e0 0.0000000000e0
3.8100000000e-3 0.0000000000e0 1.0160000000e-2
7.6200000000e-3 0.0000000000e0 1.0160000000e-2
1.1430000000e-2 0.0000000000e0 1.0160000000e-2
1.5240000000e-2 0.0000000000e0 1.0160000000e-2
1.9050000000e-2 0.0000000000e0 1.0160000000e-2
3.8100000000e-3 3.0000000000e-2 0.0000000000e0
7.6200000000e-3 3.0000000000e-2 0.0000000000e0
1.1430000000e-2 3.0000000000e-2 0.0000000000e0
1.5240000000e-2 3.0000000000e-2 0.0000000000e0
1.9050000000e-2 3.0000000000e-2 0.0000000000e0
3.8100000000e-3 3.0000000000e-2 1.0160000000e-2
7.6200000000e-3 3.0000000000e-2 1.0160000000e-2
1.1430000000e-2 3.0000000000e-2 1.0160000000e-2
1.5240000000e-2 3.0000000000e-2 1.0160000000e-2
1.9050000000e-2 3.0000000000e-2 1.0160000000e-2
0.0000000000e0 2.7067060633e-2 5.0800000000e-3
0.0000000000e0 2.9329393675e-3 5.0800000000e-3
0.0000000000e0 2.0607895740e-2 3.4149433368e-3
0.0000000000e0 1.3125000000e-2 3.2475952642e-3
0.0000000000e0 1.6875000000e-2 6.9124047358e-3
0.0000000000e0 9.3921042596e-3 6.7450566632e-3
0.0000000000e0 2.0575689701e-2 7.5387577184e-3
0.0000000000e0 1.6874109524e-2 3.0751560233e-3
0.0000000000e0 1.3125890476e-2 7.0848439767e-3
0.0000000000e0 9.4243102990e-3 2.6212422816e-3
0.0000000000e0 5.3249758464e-3 7.1684469476e-3
0.0000000000e0 2.4675024154e-2 2.9915530524e-3
0.0000000000e0 2.4145552764e-2 7.0464405194e-3
0.0000000000e0 5.8544472356e-3 3.1135594806e-3
0.0000000000e0 2.7479635784e-2 7.7520655419e-3
0.0000000000e0 2.7479635784e-2 2.4079344581e-3
0.0000000000e0 2.5203642158e-3 7.7520655419e-3
0.0000000000e0 2.5203642158e-3 2.4079344581e-3
2.2860000000e-2 2.7067060633e-2 5.0800000000e-3
2.2860000000e-2 2.9329393675e-3 5.0800000000e-3
2.2860000000e-2 2.0607895740e-2 3.4149433368e-3
2.2860000000e-2 1.3125000000e-2 3.2475952642e-3
2.2860000000e-2 1.6875000000e-2 6.9124047358e-3
2.2860000000e-2 9.3921042596e-3 6.7450566632e-3
2.2860000000e-2 2.0575689701e-2 7.5387577184e-3
2.2860000000e-2 1.6874109524e-2 3.0751560233e-3
2.2860000000e-2 1.3125890476e-2 7.0848439767e-3
2.2860000000e-2 9.4243102990e-3 2.6212422816e-3
2.2860000000e-2 5.3249758464e-3 7.1684469476e-3
2.2860000000e-2 2.4675024154e-2 2.9915530524e-3
2.2860000000e-2 2.4145552764e-2 7.0464405194e-3
2.2860000000e-2 5.8544472356e-3 3.1135594806e-3
2.2860000000e-2 2.7479635784e-2 2.4079344581e-3
2.2860000000e-2 2.7479635784e-2 7.7520655419e-3
2.2860000000e-2 2.5203642158e-3 7.7520655419e-3
2.2860000000e-2 2.5203642158e-3 2.4079344581e-3
2.9329393675e-3 0.0000000000e0 5.0800000000e-3
1.9927060633e-2 0.0000000000e0 5.0800000000e-3
9.5250000000e-3 0.0000000000e0 3.2995567884e-3
1.3335000000e-2 0.0000000000e0 6.8604432116e-3
1.3288060349e-2 0.0000000000e0 2.6642308317e-3
9.5719396507e-3 0.0000000000e0 7.4957691683e-3
1.7465697863e-2 0.0000000000e0 7.1978653226e-3
5.3943021370e-3 0.0000000000e0 2.9621346774e-3
1.6910301746e-2 0.0000000000e0 3.1611541587e-3
5.9496982536e-3 0.0000000000e0 6.9988458413e-3
2.5281752011e-3 0.0000000000e0 7.7655945654e-3
2.5281752011e-3 0.0000000000e0 2.3944054346e-3
2.0331824799e-2 0.0000000000e0 7.7655945654e-3
2.0331824799e-2 0.0000000000e0 2.3944054346e-3
2.9329393675e-3 3.0000000000e-2 5.0800000000e-3
1.9927060633e-2 3.0000000000e-2 5.0800000000e-3
9.5250000000e-3 3.0000000000e-2 3.2995567884e-3
1.3335000000e-2 3.0000000000e-2 6.8604432116e-3
1.3288060349e-2 3.0000000000e-2 2.6642308317e-3
9.5719396507e-3 3.0000000000e-2 7.4957691683e-3
1.7465697863e-2 3.0000000000e-2 7.1978653226e-3
5.3943021370e-3 3.0000000000e-2 2.9621346774e-3
1.6910301746e-2 3.0000000000e-2 3.1611541587e-3
5.9496982536e-3 3.0000000000e-2 6.9988458413e-3
2.5281752011e-3 3.0000000000e-2 7.7655945654e-3
2.5281752011e-3 3.0000000000e-2 2.3944054346e-3
2.0331824799e-2 3.0000000000e-2 7.7655945654e-3
2.0331824799e-2 3.0000000000e-2 2.3944054346e-3
3.0032597289e-3 1.7053382250e-2 0.0000000000e0
1.9374906205e-2 1.3140168730e-2 0.0000000000e0
1.3292324977e-2 2.6390097520e-2 0.0000000000e0
9.5349916220e-3 3.2987589966e-3 0.0000000000e0
1.9282143073e-2 2.0260904772e-2 0.0000000000e0
3.3990631681e-3 9.0777329865e-3 0.0000000000e0
1.6993391798e-2 3.2075459795e-3 0.0000000000e0
5.5706840137e-3 2.6774551281e-2 0.0000000000e0
1.3312591326e-2 3.2785812089e-3 0.0000000000e0
1.1435229781e-2 6.5801018339e-3 0.0000000000e0
7.0221190436e-3 6.8767844285e-3 0.0000000000e0
9.5482210217e-3 9.8627330247e-3 0.0000000000e0
1.3329378341e-2 9.8552977906e-3 0.0000000000e0
1.1442663086e-2 1.3123500598e-2 0.0000000000e0
7.7150351477e-3 1.3129967350e-2 0.0000000000e0
9.6645250455e-3 1.6332769384e-2 0.0000000000e0
1.3347048630e-2 1.6371376085e-2 0.0000000000e0
1.1441262234e-2 1.9616869481e-2 0.0000000000e0
8.0656326056e-3 1.9396484399e-2 0.0000000000e0
9.7574291791e-3 2.2918228652e-2 0.0000000000e0
1.5170836301e-2 1.9788578707e-2 0.0000000000e0
1.7106992305e-2 1.6592316327e-2 0.0000000000e0
1.6701906859e-2 2.3314854219e-2 0.0000000000e0
5.6802354321e-3 3.1827773814e-3 0.0000000000e0
1.5200355414e-2 6.5624135570e-3 0.0000000000e0
1.7104311409e-2 9.8670221071e-3 0.0000000000e0
1.9330824752e-2 6.1670243647e-3 0.0000000000e0
9.2384056136e-3 2.6583295217e-2 0.0000000000e0
1.5284216663e-2 1.3158280273e-2 0.0000000000e0
3.8333502594e-3 1.3112028103e-2 0.0000000000e0
2.9169526120e-3 2.0658918312e-2 0.0000000000e0
1.7211032325e-2 2.6909153486e-2 0.0000000000e0
3.0282716898e-3 2.4278122460e-2 0.0000000000e0
3.1513738996e-3 5.6064197490e-3 0.0000000000e0
1.3272751910e-2 2.2405725716e-2 0.0000000000e0
1.9926363821e-2 2.4391666377e-2 0.0000000000e0
6.1886758944e-3 2.2696242807e-2 0.0000000000e0
6.3313909733e-3 1.6128987380e-2 0.0000000000e0
2.0270458824e-2 1.6842117338e-2 0.0000000000e0
6.3399109015e-3 1.0257232482e-2 0.0000000000e0
2.0306008473e-2 9.5848430404e-3 0.0000000000e0
2.8124266069e-3 2.7969454326e-3 0.0000000000e0
2.0060936205e-2 2.7833688157e-3 0.0000000000e0
2.7164751199e-3 2.7280121283e-2 0.0000000000e0
2.0259599042e-2 2.7402075216e-2 0.0000000000e0
5.3011823629e-3 1.9186803030e-2 0.0000000000e0
3.4850937950e-3 1.6859831270e-2 1.0160000000e-2
1.9856740271e-2 1.2946617750e-2 1.0160000000e-2
1.3325008378e-2 2.6701241003e-2 1.0160000000e-2
9.5676750235e-3 3.6099024795e-3 1.0160000000e-2
1.9460936832e-2 2.0922267013e-2 1.0160000000e-2
3.5778569271e-3 9.7390952284e-3 1.0160000000e-2
1.7289315986e-2 3.2254487189e-3 1.0160000000e-2
5.8666082021e-3 2.6792454020e-2 1.0160000000e-2
9.5474086744e-3 2.6721418791e-2 1.0160000000e-2
1.1424770219e-2 2.3419898166e-2 1.0160000000e-2
1.5837880956e-2 2.3123215571e-2 1.0160000000e-2
1.3311778978e-2 2.0137266975e-2 1.0160000000e-2
9.5306216592e-3 2.0144702209e-2 1.0160000000e-2
1.1417336914e-2 1.6876499402e-2 1.0160000000e-2
1.5144964852e-2 1.6870032650e-2 1.0160000000e-2
1.3195474954e-2 1.3667230616e-2 1.0160000000e-2
9.5129513703e-3 1.3628623915e-2 1.0160000000e-2
1.1418737766e-2 1.0383130519e-2 1.0160000000e-2
1.4794367394e-2 1.0603515601e-2 1.0160000000e-2
1.3102570821e-2 7.0817713478e-3 1.0160000000e-2
7.6891636986e-3 1.0211421293e-2 1.0160000000e-2
5.7530076952e-3 1.3407683673e-2 1.0160000000e-2
6.1580931408e-3 6.6851457810e-3 1.0160000000e-2
1.7179764568e-2 2.6817222619e-2 1.0160000000e-2
7.6596445855e-3 2.3437586443e-2 1.0160000000e-2
5.7556885912e-3 2.0132977893e-2 1.0160000000e-2
3.5291752478e-3 2.3832975635e-2 1.0160000000e-2
1.3621594386e-2 3.4167047832e-3 1.0160000000e-2
7.5757833375e-3 1.6841719727e-2 1.0160000000e-2
1.9943047388e-2 9.3410816876e-3 1.0160000000e-2
1.9026649741e-2 1.6887971897e-2 1.0160000000e-2
5.6489676750e-3 3.0908465141e-3 1.0160000000e-2
1.9831728310e-2 5.7218775397e-3 1.0160000000e-2
1.9708626100e-2 2.4393580251e-2 1.0160000000e-2
9.5872480899e-3 7.5942742841e-3 1.0160000000e-2
[...]
POINT_DATA 242
VECTORS E_real double
0.0000000000e0 0.0000000000e0 0.0000000000e0
0.0000000000e0 0.0000000000e0 0.0000000000e0
2.3514892079e-17 1.0876279436e-17 2.0597795604e-17
4.8343780924e-19 3.0989419652e-18 3.7890786968e-18
-6.8802902966e-18 -3.9833350341e-18 1.0652599969e-17
-6.8198086184e-18 2.4222387015e-19 -2.5353363439e-19
-1.2603659011e-16 -2.8798289732e-17 -1.9942954145e-16
-1.9388975727e-17 2.9321308102e-18 8.6129464853e-17
0.0000000000e0 0.0000000000e0 0.0000000000e0
0.0000000000e0 0.0000000000e0 0.0000000000e0
1.3092852569e-19 0.0000000000e0 0.0000000000e0
0.0000000000e0 0.0000000000e0 -5.3338802536e-18
-4.0284271827e-18 0.0000000000e0 0.0000000000e0
-1.1606023491e-18 0.0000000000e0 0.0000000000e0
4.0317548508e-18 -6.7920461971e-19 -9.0389244695e-19
7.4750587132e-18 -1.5084145738e-18 1.0049295304e-17
-1.5174260596e-17 0.0000000000e0 0.0000000000e0
1.1958591312e-17 -2.2050857299e-17 9.0876091614e-18
1.2562452937e-17 -4.9819417271e-17 -4.3437247417e-19
0.0000000000e0 0.0000000000e0 0.0000000000e0
0.0000000000e0 0.0000000000e0 0.0000000000e0
0.0000000000e0 0.0000000000e0 0.0000000000e0
0.0000000000e0 0.0000000000e0 0.0000000000e0
0.0000000000e0 0.0000000000e0 -1.4235971929e-17
0.0000000000e0 0.0000000000e0 -5.6327085990e-18
0.0000000000e0 0.0000000000e0 -1.0817159950e-17
0.0000000000e0 -7.3174067099e-18 0.0000000000e0
0.0000000000e0 8.8142096290e-18 0.0000000000e0
-6.3931904838e-17 1.1671188978e-17 -4.9552633535e-17
5.1987508337e-17 -9.2485353622e-18 -7.9331220334e-17
1.0039523043e-17 7.8906479563e-32 -1.6780964776e-16
-5.4013332245e-17 -6.3032495201e-17 2.0159384573e-16
-1.0631035312e-17 8.9805945436e-18 2.2641992098e-17
5.9571715111e-17 5.5806773637e-18 8.6689817910e-17
-5.2930316036e-17 1.6838810877e-30 -1.4591251618e-16
-1.8319923426e-17 3.9663276579e-17 6.2172406518e-18
-1.0334777216e-16 -8.8985909748e-17 -2.4744869821e-17
-3.9694844145e-18 0.0000000000e0 -6.0473311974e-33
0.0000000000e0 0.0000000000e0 -1.2631459331e-17
0.0000000000e0 0.0000000000e0 -5.0563132787e-18
4.2112996398e-17 8.7101837600e-18 -6.8647941052e-17
-4.6901886982e-17 4.8779891535e-18 3.2617109069e-17
0.0000000000e0 0.0000000000e0 2.3255753200e-17
-5.5102913126e-17 -1.1234235464e-17 7.6347914057e-17
0.0000000000e0 0.0000000000e0 0.0000000000e0
0.0000000000e0 0.0000000000e0 0.0000000000e0
0.0000000000e0 0.0000000000e0 3.1531381601e-19
0.0000000000e0 0.0000000000e0 0.0000000000e0
0.0000000000e0 0.0000000000e0 0.0000000000e0
1.6154940054e-18 -1.9078097711e-18 -8.6484112035e-19
0.0000000000e0 0.0000000000e0 0.0000000000e0
0.0000000000e0 -3.1525163821e-18 0.0000000000e0
-1.4520745145e-17 -5.3744715146e-17 -7.4152078536e-19
0.0000000000e0 1.4463991541e-18 0.0000000000e0
5.7612170264e-18 -8.0853910705e-18 1.1225096889e-17
0.0000000000e0 0.0000000000e0 8.0237658958e-18
0.0000000000e0 0.0000000000e0 -1.1678272821e-17
0.0000000000e0 0.0000000000e0 -1.0446537091e-17
0.0000000000e0 0.0000000000e0 -2.4927416910e-17
3.7840024565e-18 4.6878144937e-17 -3.6578365437e-17
5.1602618578e-18 -5.1219486931e-17 -6.7340859375e-17
1.7667958025e-17 -6.6170994267e-17 1.1046472512e-16
7.9954877539e-18 -7.2773540007e-17 4.5266788473e-17
-4.4249898135e-17 1.8091891581e-16 -2.0829581907e-16
4.2614420738e-3 4.3696481213e-4 6.7468713187e-5
3.5673478913e-3 -3.7574465159e-5 -5.8016131792e-6
3.8196656191e-4 -9.1928647547e-5 1.0475870980e-3
4.0059003231e-3 -1.5777855542e-3 5.3995976879e-4
4.0315638843e-3 -4.9265688862e-4 2.9107712816e-3
1.3120732789e-3 5.9343385245e-5 5.7005835310e-4
4.1043262784e-3 -4.2121233480e-4 -1.1481843691e-3
3.1097645655e-3 -1.7979075214e-3 -5.1717643945e-4
2.5532866972e-3 -1.1684698769e-3 -7.0980888306e-4
5.0953755101e-3 1.4521065340e-3 2.4367760659e-4
1.2590223435e-3 1.3916399317e-3 -1.1127008629e-3
3.6900922058e-3 -9.1961703183e-5 -8.8339310015e-4
1.4389939202e-3 3.3984801510e-5 2.4642870058e-4
4.2060992808e-3 6.3393736845e-4 -2.9953583677e-3
4.8472667079e-3 6.7293748816e-4 -9.6481793716e-4
1.6156567518e-3 -1.1967528157e-3 3.5794074654e-4
3.0546868512e-3 -2.7593382890e-3 3.6984453235e-3
1.4922691960e-3 5.2402957385e-4 -1.6742564291e-3
-1.5442655232e-3 3.1371248584e-4 4.8438174294e-5
-8.4024255919e-4 -5.3404142082e-3 -8.2457640640e-4
-6.7557562665e-3 -2.9412188488e-4 -2.8253635450e-3
-4.9666830091e-3 7.4337369659e-4 -4.3920847500e-3
-5.0111638875e-3 -4.9071623334e-3 7.3449852724e-4
-1.8305867781e-3 -7.8070253546e-4 -3.4098674784e-4
-2.1183112776e-3 -2.2017667707e-3 -1.4606248984e-3
-2.7367048556e-3 -7.2784784542e-18 -1.6815575217e-17
-9.8920680351e-4 -4.0330863714e-5 4.4317965101e-4
-2.4594342124e-3 9.3344445053e-4 1.7658487385e-3
-3.8003226027e-3 5.5131231833e-5 5.2959599614e-4
-3.2408420277e-3 -3.4427236537e-3 -2.0319998715e-4
-4.1061084100e-3 -4.9341740078e-4 2.3314005669e-3
-7.9894011265e-4 6.4411665573e-5 4.6705828322e-4
-2.2104035537e-3 4.5643718444e-4 -1.4636723339e-4
1.4055600835e-4 5.7515686833e-3 -2.6710067083e-3
-3.7584538330e-3 1.1223491176e-4 3.0946493535e-4
-5.1590581991e-3 -1.4740937235e-3 -7.6410758717e-3
9.9858594456e-3 4.3609104530e-4 1.5050365852e-3
-7.5317372931e-3 4.0982507814e-4 1.1351591957e-3
5.5104783680e-4 4.3026094544e-5 -6.1641286578e-6
3.3192756207e-5 1.3150773047e-3 1.9660198589e-4
-1.9955907002e-3 4.5029712898e-3 -4.0627724209e-5
4.4537210372e-4 6.1280341460e-4 -7.7697407137e-4
3.4361130674e-3 4.0607028729e-3 1.0894399946e-3
-4.4977103000e-5 2.9644687690e-3 5.5060654642e-4
-3.7403386038e-4 3.8098871118e-3 -1.6690806719e-3
-3.6992496703e-4 5.0918321636e-3 2.6965076033e-3
9.9469999375e-3 1.9917255066e-3 2.4990704282e-3
3.6033668809e-3 1.6568430205e-4 -5.4308785490e-4
-7.7616559990e-3 1.9639337609e-3 1.1698118028e-3
-1.7623981388e-3 -6.2677688864e-4 -2.6562297327e-4
5.1932723745e-3 -3.2543428170e-5 -7.8271329206e-4
-8.5572134515e-3 -4.3471743622e-5 -1.2897156607e-3
6.3544533330e-5 5.5056316912e-5 3.7637674217e-4
-5.4490093447e-4 -3.9187134368e-4 6.0953682085e-6
3.2509885921e-4 -3.8599903113e-3 1.5538849268e-3
1.4131770143e-3 -5.1584237361e-3 6.5310549249e-4
2.8656370196e-5 -2.0578537517e-3 -3.5080927792e-4
1.4441118757e-3 -1.7209701223e-3 1.5574382037e-4
2.4930945519e-4 -5.3283948746e-3 -1.8173005377e-3
2.7305499728e-4 -3.5221336021e-3 1.2184747602e-3
8.4713668942e-3 -1.3552801150e-3 1.2767771439e-3
2.6330704963e-3 -5.0478832711e-4 -3.9684790778e-4
-4.7055327033e-3 -3.7991313934e-3 7.0920273914e-4
-6.0775255277e-3 -2.0500652206e-3 -1.8848939583e-3
8.9944082627e-3 1.8943167369e-3 2.6266105063e-3
0.0000000000e0 0.0000000000e0 2.2318380585e-3
2.2795632391e-3 -5.8508618932e-3 1.8854765801e-3
-1.6383355358e-3 4.7969408793e-3 -5.8963615050e-4
4.3914025530e-4 -3.8224447921e-3 6.7005519212e-3
9.0594746748e-4 -9.7524171919e-5 -3.2381469866e-4
-8.0700753384e-4 -4.3131176909e-4 3.2486914229e-4
2.4975996275e-3 -4.9721413607e-3 2.4648077610e-3
2.5601144702e-5 4.7929375596e-3 1.5563071812e-3
1.8690147892e-3 -1.0809098807e-3 -2.2758584182e-4
3.1267455513e-4 2.1959355250e-4 2.7463910923e-3
2.7472208391e-7 1.3970877083e-4 1.5475342759e-3
-2.7677306006e-6 -1.4075178620e-3 6.8897953180e-4
-1.1417087960e-3 6.6943875604e-4 -1.0188880466e-3
-5.0191961162e-3 -2.3156835892e-3 1.2132731785e-3
5.9914857758e-5 -9.7998964362e-4 3.6487872407e-3
-8.3292215663e-4 -5.0216684159e-4 1.3484069512e-3
2.3121721170e-3 1.3577307447e-3 2.5681512752e-3
1.7557510322e-4 -2.3147914316e-3 4.5613562034e-3
-8.0630160081e-4 3.8733598674e-4 4.1690480791e-3
-1.7204974805e-3 7.4702133406e-4 1.7611386278e-3
0.0000000000e0 0.0000000000e0 2.1458297781e-3
6.5777905777e-4 -3.8815245826e-4 5.2233334595e-3
0.0000000000e0 0.0000000000e0 4.3934773650e-3
-6.7755680743e-4 -3.6212577085e-4 8.1588954220e-4
1.4519748519e-5 1.6474587134e-4 1.0039178601e-3
-1.2035682874e-2 3.4340622261e-3 6.3068511934e-4
-1.4322876761e-4 -2.7467011128e-3 4.4436464177e-3
2.0068870656e-3 -7.9609526593e-4 3.2843465418e-3
0.0000000000e0 0.0000000000e0 1.2848227889e-3
1.7434275428e-4 2.8236455829e-4 3.1905769341e-3
7.7512406151e-4 -4.7938998646e-3 8.0279187413e-4
5.2912284664e-3 -1.6274701530e-4 8.9577109373e-4
-4.1261656771e-4 1.2572244818e-3 1.2001661142e-3
0.0000000000e0 0.0000000000e0 2.7566530228e-3
-3.5970376166e-3 4.2646890036e-3 3.0765231880e-3
0.0000000000e0 0.0000000000e0 2.5834971506e-3
-2.1569393747e-3 -9.9513726843e-4 3.5619271770e-3
-1.8752472050e-4 2.5452455482e-4 -3.5530967584e-3
0.0000000000e0 0.0000000000e0 3.9433188929e-3
-2.7271143721e-3 -2.1903849602e-4 -2.5780613973e-4
5.6604957572e-3 6.7514179209e-3 -1.9643277545e-4
-5.0022302953e-3 7.2978554690e-3 -1.8189223442e-4
9.2024143180e-4 -1.9217222188e-3 9.8807474430e-5
-4.2783326487e-3 -5.9743126746e-3 6.6990165206e-4
1.3712662607e-3 2.2208952337e-3 3.1412896172e-3
9.5350958240e-19 -4.1045148618e-18 -9.6115202170e-4
-6.3786485222e-18 3.3749780534e-17 -3.1848280860e-3
2.6446238392e-3 -6.4099470994e-3 5.9730043991e-4
-9.0317511482e-4 3.4237438251e-3 -1.3169922012e-3
-2.7141375275e-3 2.9217369036e-4 -1.1804932740e-5
2.5293216006e-4 -2.2016182901e-3 -1.9006759121e-3
-8.0091281541e-4 5.9452821073e-4 -7.3201913557e-4
1.3993077346e-3 7.4787145005e-4 -2.5570254006e-3
-1.6544313173e-5 -3.0973560334e-3 -2.6237258428e-3
-2.5619516889e-3 1.4816570262e-3 -7.6888553554e-4
3.3196958751e-3 2.3314459027e-3 -8.7598448699e-4
9.4400597832e-7 4.8007030600e-4 1.5492456544e-3
2.2941115201e-6 1.1666608525e-3 5.4596626375e-4
7.6764992243e-5 -4.5011005518e-5 -2.9867440899e-3
8.7495023570e-3 4.0367179430e-3 -3.7162190288e-4
-1.8284983733e-5 2.9907597819e-4 -4.0366425730e-3
1.1559063783e-3 6.9689328172e-4 1.6225991824e-4
-2.4164992622e-3 -1.4189926946e-3 -2.5983446065e-3
-5.9456270178e-5 7.8387460544e-4 -5.7041944037e-3
8.1411411788e-4 -3.9108901043e-4 -2.1402162641e-3
4.6488388054e-4 -2.0184753571e-4 -1.1131683634e-3
1.8748077378e-17 6.0524510296e-17 -1.7247505266e-3
5.1359374320e-3 2.3936819325e-3 -2.2477811118e-3
4.3695815671e-17 1.1539696313e-17 -3.4850743428e-3
9.3703593167e-4 5.0080650854e-4 -9.2054436886e-4
1.5893189453e-5 1.8032938666e-4 -1.9564077030e-5
3.3424951535e-3 -9.5369215584e-4 -2.2510083367e-3
5.3633725621e-4 1.0285350932e-2 -3.6235597588e-3
-1.7873137064e-3 -1.0961524753e-3 -3.1923127094e-3
1.8084644787e-4 2.9289790437e-4 -5.6756323693e-3
2.8201879036e-17 2.1132367864e-17 -1.1136630361e-3
-4.9472671613e-4 3.0597299907e-3 -6.8151364200e-4
-6.6868387107e-3 2.0567303961e-4 -1.1496870842e-3
6.7207663216e-4 -2.0477878537e-3 4.6963913845e-4
-1.0030779583e-17 5.0453775196e-18 -2.7447570015e-3
3.1371596389e-3 3.3171607106e-3 -5.3605746495e-4
1.8566842690e-17 2.7744503505e-17 -3.1225051157e-3
3.5814454401e-3 1.6523551260e-3 2.1361032372e-3
4.3910743952e-3 1.2693880726e-3 -1.1291189038e-3
-2.8494624028e-17 1.2864732918e-17 1.9342127514e-3
7.2090100326e-3 3.1973389390e-3 3.3622089789e-4
-5.1508954963e-3 -4.6916212707e-3 -5.3954587006e-4
-1.5654104731e-3 3.3791029219e-3 -1.6062179875e-4
4.2130458782e-3 -4.8319464339e-3 4.4100407240e-4
1.3389042852e-3 1.6522461556e-3 -2.9800376767e-4
-1.0029952133e-3 -1.6244454870e-3 -3.5178375329e-3
-1.9219528229e-3 -9.9370510399e-4 -4.2695825772e-3
2.8087458442e-3 9.1089314176e-4 6.4008097181e-3
-5.2114478801e-3 8.9315893329e-4 1.0363878034e-2
2.5360730623e-3 9.6476997767e-4 -6.1675077431e-3
6.2755695227e-3 -1.4391436588e-3 3.6186211632e-3
-3.0310639828e-3 2.2060224791e-3 1.4857001256e-3
-9.0363357910e-3 -4.9260181337e-4 -4.8700408466e-4
5.9170333719e-4 3.4818115508e-3 4.1697430361e-3
-6.1310805300e-3 5.4627359755e-3 -1.2222209561e-2
1.0444481027e-3 -2.4317039508e-3 4.7161986646e-3
1.7533103160e-3 8.4212545944e-4 -2.7399409399e-3
-1.0150619471e-3 2.1088742308e-3 6.5300717056e-3
1.6785204359e-3 -3.0790960409e-4 -7.9055723154e-4
-3.0065205187e-3 -7.9541896182e-6 6.4885851619e-4
5.5468626225e-3 -3.9560051998e-3 5.6503624819e-3
-8.5816871483e-3 4.0291666224e-3 -7.5859324623e-3
-8.7854618984e-3 3.9802046048e-3 1.3407896953e-3
6.6065148756e-4 1.7181174942e-3 2.2135555772e-3
2.8669493271e-3 1.4359869303e-3 1.1776614500e-3
-1.7110058930e-3 -4.2297316737e-4 -3.3888497255e-3
-1.8552630475e-3 7.0916604622e-4 5.0670906693e-4
2.7525997047e-3 -5.7048125067e-3 6.2641707751e-4
VECTORS E_imag double
0.0000000000e0 0.0000000000e0 0.0000000000e0
0.0000000000e0 0.0000000000e0 0.0000000000e0
0.0000000000e0 0.0000000000e0 0.0000000000e0
0.0000000000e0 0.0000000000e0 0.0000000000e0
0.0000000000e0 0.0000000000e0 0.0000000000e0
0.0000000000e0 0.0000000000e0 0.0000000000e0
0.0000000000e0 0.0000000000e0 0.0000000000e0
0.0000000000e0 0.0000000000e0 0.0000000000e0
0.0000000000e0 0.0000000000e0 0.0000000000e0
0.0000000000e0 0.0000000000e0 0.0000000000e0
0.0000000000e0 0.0000000000e0 0.0000000000e0
0.0000000000e0 0.0000000000e0 0.0000000000e0
0.0000000000e0 0.0000000000e0 0.0000000000e0
0.0000000000e0 0.0000000000e0 0.0000000000e0
0.0000000000e0 0.0000000000e0 0.0000000000e0
0.0000000000e0 0.0000000000e0 0.0000000000e0
0.0000000000e0 0.0000000000e0 0.0000000000e0
0.0000000000e0 0.0000000000e0 0.0000000000e0
0.0000000000e0 0.0000000000e0 0.0000000000e0
0.0000000000e0 0.0000000000e0 0.0000000000e0
0.0000000000e0 0.0000000000e0 0.0000000000e0
0.0000000000e0 0.0000000000e0 0.0000000000e0
0.0000000000e0 0.0000000000e0 0.0000000000e0
0.0000000000e0 0.0000000000e0 0.0000000000e0
0.0000000000e0 0.0000000000e0 0.0000000000e0
0.0000000000e0 0.0000000000e0 0.0000000000e0
0.0000000000e0 0.0000000000e0 0.0000000000e0
0.0000000000e0 0.0000000000e0 0.0000000000e0
0.0000000000e0 0.0000000000e0 0.0000000000e0
0.0000000000e0 0.0000000000e0 0.0000000000e0
0.0000000000e0 0.0000000000e0 0.0000000000e0
0.0000000000e0 0.0000000000e0 0.0000000000e0
0.0000000000e0 0.0000000000e0 0.0000000000e0
0.0000000000e0 0.0000000000e0 0.0000000000e0
0.0000000000e0 0.0000000000e0 0.0000000000e0
0.0000000000e0 0.0000000000e0 0.0000000000e0
0.0000000000e0 0.0000000000e0 0.0000000000e0
0.0000000000e0 0.0000000000e0 0.0000000000e0
0.0000000000e0 0.0000000000e0 0.0000000000e0
0.0000000000e0 0.0000000000e0 0.0000000000e0
0.0000000000e0 0.0000000000e0 0.0000000000e0
0.0000000000e0 0.0000000000e0 0.0000000000e0
0.0000000000e0 0.0000000000e0 0.0000000000e0
0.0000000000e0 0.0000000000e0 0.0000000000e0
0.0000000000e0 0.0000000000e0 0.0000000000e0
0.0000000000e0 0.0000000000e0 0.0000000000e0
0.0000000000e0 0.0000000000e0 0.0000000000e0
0.0000000000e0 0.0000000000e0 0.0000000000e0
0.0000000000e0 0.0000000000e0 0.0000000000e0
0.0000000000e0 0.0000000000e0 0.0000000000e0
0.0000000000e0 0.0000000000e0 0.0000000000e0
0.0000000000e0 0.0000000000e0 0.0000000000e0
0.0000000000e0 0.0000000000e0 0.0000000000e0
0.0000000000e0 0.0000000000e0 0.0000000000e0
0.0000000000e0 0.0000000000e0 0.0000000000e0
0.0000000000e0 0.0000000000e0 0.0000000000e0
0.0000000000e0 0.0000000000e0 0.0000000000e0
0.0000000000e0 0.0000000000e0 0.0000000000e0
0.0000000000e0 0.0000000000e0 0.0000000000e0
0.0000000000e0 0.0000000000e0 0.0000000000e0
0.0000000000e0 0.0000000000e0 0.0000000000e0
0.0000000000e0 0.0000000000e0 0.0000000000e0
0.0000000000e0 0.0000000000e0 0.0000000000e0
0.0000000000e0 0.0000000000e0 0.0000000000e0
0.0000000000e0 0.0000000000e0 0.0000000000e0
0.0000000000e0 0.0000000000e0 0.0000000000e0
0.0000000000e0 0.0000000000e0 0.0000000000e0
0.0000000000e0 0.0000000000e0 0.0000000000e0
0.0000000000e0 0.0000000000e0 0.0000000000e0
0.0000000000e0 0.0000000000e0 0.0000000000e0
0.0000000000e0 0.0000000000e0 0.0000000000e0
0.0000000000e0 0.0000000000e0 0.0000000000e0
0.0000000000e0 0.0000000000e0 0.0000000000e0
0.0000000000e0 0.0000000000e0 0.0000000000e0
0.0000000000e0 0.0000000000e0 0.0000000000e0
0.0000000000e0 0.0000000000e0 0.0000000000e0
0.0000000000e0 0.0000000000e0 0.0000000000e0
0.0000000000e0 0.0000000000e0 0.0000000000e0
0.0000000000e0 0.0000000000e0 0.0000000000e0
0.0000000000e0 0.0000000000e0 0.0000000000e0
0.0000000000e0 0.0000000000e0 0.0000000000e0
0.0000000000e0 0.0000000000e0 0.0000000000e0
0.0000000000e0 0.0000000000e0 0.0000000000e0
0.0000000000e0 0.0000000000e0 0.0000000000e0
0.0000000000e0 0.0000000000e0 0.0000000000e0
0.0000000000e0 0.0000000000e0 0.0000000000e0
0.0000000000e0 0.0000000000e0 0.0000000000e0
0.0000000000e0 0.0000000000e0 0.0000000000e0
0.0000000000e0 0.0000000000e0 0.0000000000e0
0.0000000000e0 0.0000000000e0 0.0000000000e0
0.0000000000e0 0.0000000000e0 0.0000000000e0
0.0000000000e0 0.0000000000e0 0.0000000000e0
0.0000000000e0 0.0000000000e0 0.0000000000e0
0.0000000000e0 0.0000000000e0 0.0000000000e0
0.0000000000e0 0.0000000000e0 0.0000000000e0
0.0000000000e0 0.0000000000e0 0.0000000000e0
0.0000000000e0 0.0000000000e0 0.0000000000e0
0.0000000000e0 0.0000000000e0 0.0000000000e0
0.0000000000e0 0.0000000000e0 0.0000000000e0
0.0000000000e0 0.0000000000e0 0.0000000000e0
0.0000000000e0 0.0000000000e0 0.0000000000e0
0.0000000000e0 0.0000000000e0 0.0000000000e0
0.0000000000e0 0.0000000000e0 0.0000000000e0
0.0000000000e0 0.0000000000e0 0.0000000000e0
0.0000000000e0 0.0000000000e0 0.0000000000e0
0.0000000000e0 0.0000000000e0 0.0000000000e0
0.0000000000e0 0.0000000000e0 0.0000000000e0
0.0000000000e0 0.0000000000e0 0.0000000000e0
0.0000000000e0 0.0000000000e0 0.0000000000e0
0.0000000000e0 0.0000000000e0 0.0000000000e0
0.0000000000e0 0.0000000000e0 0.0000000000e0
0.0000000000e0 0.0000000000e0 0.0000000000e0
0.0000000000e0 0.0000000000e0 0.0000000000e0
0.0000000000e0 0.0000000000e0 0.0000000000e0
0.0000000000e0 0.0000000000e0 0.0000000000e0
0.0000000000e0 0.0000000000e0 0.0000000000e0
0.0000000000e0 0.0000000000e0 0.0000000000e0
0.0000000000e0 0.0000000000e0 0.0000000000e0
0.0000000000e0 0.0000000000e0 0.0000000000e0
0.0000000000e0 0.0000000000e0 0.0000000000e0
0.0000000000e0 0.0000000000e0 0.0000000000e0
0.0000000000e0 0.0000000000e0 0.0000000000e0
0.0000000000e0 0.0000000000e0 0.0000000000e0
0.0000000000e0 0.0000000000e0 0.0000000000e0
0.0000000000e0 0.0000000000e0 0.0000000000e0
0.0000000000e0 0.0000000000e0 0.0000000000e0
0.0000000000e0 0.0000000000e0 0.0000000000e0
0.0000000000e0 0.0000000000e0 0.0000000000e0
0.0000000000e0 0.0000000000e0 0.0000000000e0
0.0000000000e0 0.0000000000e0 0.0000000000e0
0.0000000000e0 0.0000000000e0 0.0000000000e0
0.0000000000e0 0.0000000000e0 0.0000000000e0
0.0000000000e0 0.0000000000e0 0.0000000000e0
0.0000000000e0 0.0000000000e0 0.0000000000e0
0.0000000000e0 0.0000000000e0 0.0000000000e0
0.0000000000e0 0.0000000000e0 0.0000000000e0
0.0000000000e0 0.0000000000e0 0.0000000000e0
0.0000000000e0 0.0000000000e0 0.0000000000e0
0.0000000000e0 0.0000000000e0 0.0000000000e0
0.0000000000e0 0.0000000000e0 0.0000000000e0
0.0000000000e0 0.0000000000e0 0.0000000000e0
0.0000000000e0 0.0000000000e0 0.0000000000e0
0.0000000000e0 0.0000000000e0 0.0000000000e0
0.0000000000e0 0.0000000000e0 0.0000000000e0
0.0000000000e0 0.0000000000e0 0.0000000000e0
0.0000000000e0 0.0000000000e0 0.0000000000e0
0.0000000000e0 0.0000000000e0 0.0000000000e0
0.0000000000e0 0.0000000000e0 0.0000000000e0
0.0000000000e0 0.0000000000e0 0.0000000000e0
0.0000000000e0 0.0000000000e0 0.0000000000e0
0.0000000000e0 0.0000000000e0 0.0000000000e0
0.0000000000e0 0.0000000000e0 0.0000000000e0
0.0000000000e0 0.0000000000e0 0.0000000000e0
0.0000000000e0 0.0000000000e0 0.0000000000e0
0.0000000000e0 0.0000000000e0 0.0000000000e0
0.0000000000e0 0.0000000000e0 0.0000000000e0
0.0000000000e0 0.0000000000e0 0.0000000000e0
0.0000000000e0 0.0000000000e0 0.0000000000e0
0.0000000000e0 0.0000000000e0 0.0000000000e0
0.0000000000e0 0.0000000000e0 0.0000000000e0
0.0000000000e0 0.0000000000e0 0.0000000000e0
0.0000000000e0 0.0000000000e0 0.0000000000e0
0.0000000000e0 0.0000000000e0 0.0000000000e0
0.0000000000e0 0.0000000000e0 0.0000000000e0
0.0000000000e0 0.0000000000e0 0.0000000000e0
0.0000000000e0 0.0000000000e0 0.0000000000e0
0.0000000000e0 0.0000000000e0 0.0000000000e0
0.0000000000e0 0.0000000000e0 0.0000000000e0
0.0000000000e0 0.0000000000e0 0.0000000000e0
0.0000000000e0 0.0000000000e0 0.0000000000e0
0.0000000000e0 0.0000000000e0 0.0000000000e0
0.0000000000e0 0.0000000000e0 0.0000000000e0
0.0000000000e0 0.0000000000e0 0.0000000000e0
0.0000000000e0 0.0000000000e0 0.0000000000e0
0.0000000000e0 0.0000000000e0 0.0000000000e0
0.0000000000e0 0.0000000000e0 0.0000000000e0
0.0000000000e0 0.0000000000e0 0.0000000000e0