# vtk DataFile Version 3.0
RapidFEM Mode 6 f=12.1049GHz
ASCII
DATASET UNSTRUCTURED_GRID
POINTS 242 double
0.0000000000e0 0.0000000000e0 1.0160000000e-2
0.0000000000e0 0.0000000000e0 0.0000000000e0
0.0000000000e0 3.0000000000e-2 1.0160000000e-2
0.0000000000e0 3.0000000000e-2 0.0000000000e0
2.2860000000e-2 0.0000000000e0 1.0160000000e-2
2.2860000000e-2 0.0000000000e0 0.0000000000e0
2.2860000000e-2 3.0000000000e-2 1.0160000000e-2
2.2860000000e-2 3.0000000000e-2 0.0000000000e0
0.0000000000e0 0.0000000000e0 3.3866666667e-3
0.0000000000e0 0.0000000000e0 6.7733333333e-3
0.0000000000e0 3.7500000000e-3 1.0160000000e-2
0.0000000000e0 7.5000000000e-3 1.0160000000e-2
0.0000000000e0 1.1250000000e-2 1.0160000000e-2
0.0000000000e0 1.5000000000e-2 1.0160000000e-2
0.0000000000e0 1.8750000000e-2 1.0160000000e-2
0.0000000000e0 2.2500000000e-2 1.0160000000e-2
0.0000000000e0 2.6250000000e-2 1.0160000000e-2
0.0000000000e0 3.0000000000e-2 3.3866666667e-3
0.0000000000e0 3.0000000000e-2 6.7733333333e-3
0.0000000000e0 3.7500000000e-3 0.0000000000e0
0.0000000000e0 7.5000000000e-3 0.0000000000e0
0.0000000000e0 1.1250000000e-2 0.0000000000e0
0.0000000000e0 1.5000000000e-2 0.0000000000e0
0.0000000000e0 1.8750000000e-2 0.0000000000e0
0.0000000000e0 2.2500000000e-2 0.0000000000e0
0.0000000000e0 2.6250000000e-2 0.0000000000e0
2.2860000000e-2 0.0000000000e0 3.3866666667e-3
2.2860000000e-2 0.0000000000e0 6.7733333333e-3
2.2860000000e-2 3.7500000000e-3 1.0160000000e-2
2.2860000000e-2 7.5000000000e-3 1.0160000000e-2
2.2860000000e-2 1.1250000000e-2 1.0160000000e-2
2.2860000000e-2 1.5000000000e-2 1.0160000000e-2
2.2860000000e-2 1.8750000000e-2 1.0160000000e-2
2.2860000000e-2 2.2500000000e-2 1.0160000000e-2
2.2860000000e-2 2.6250000000e-2 1.0160000000e-2
2.2860000000e-2 3.0000000000e-2 3.3866666667e-3
2.2860000000e-2 3.0000000000e-2 6.7733333333e-3
2.2860000000e-2 3.7500000000e-3 0.0000000000e0
2.2860000000e-2 7.5000000000e-3 0.0000000000e0
2.2860000000e-2 1.1250000000e-2 0.0000000000e0
2.2860000000e-2 1.5000000000e-2 0.0000000000e0
2.2860000000e-2 1.8750000000e-2 0.0000000000e0
2.2860000000e-2 2.2500000000e-2 0.0000000000e0
2.2860000000e-2 2.6250000000e-2 0.0000000000e0
3.8100000000e-3 0.0000000000e0 0.0000000000e0
7.6200000000e-3 0.0000000000e0 0.0000000000e0
1.1430000000e-2 0.0000000000e0 0.0000000000e0
1.5240000000e-2 0.0000000000e0 0.0000000000e0
1.9050000000e-2 0.0000000000e0 0.0000000000e0
3.8100000000e-3 0.0000000000e0 1.0160000000e-2
7.6200000000e-3 0.0000000000e0 1.0160000000e-2
1.1430000000e-2 0.0000000000e0 1.0160000000e-2
1.5240000000e-2 0.0000000000e0 1.0160000000e-2
1.9050000000e-2 0.0000000000e0 1.0160000000e-2
3.8100000000e-3 3.0000000000e-2 0.0000000000e0
7.6200000000e-3 3.0000000000e-2 0.0000000000e0
1.1430000000e-2 3.0000000000e-2 0.0000000000e0
1.5240000000e-2 3.0000000000e-2 0.0000000000e0
1.9050000000e-2 3.0000000000e-2 0.0000000000e0
3.8100000000e-3 3.0000000000e-2 1.0160000000e-2
7.6200000000e-3 3.0000000000e-2 1.0160000000e-2
1.1430000000e-2 3.0000000000e-2 1.0160000000e-2
1.5240000000e-2 3.0000000000e-2 1.0160000000e-2
1.9050000000e-2 3.0000000000e-2 1.0160000000e-2
0.0000000000e0 2.7067060633e-2 5.0800000000e-3
0.0000000000e0 2.9329393675e-3 5.0800000000e-3
0.0000000000e0 2.0607895740e-2 3.4149433368e-3
0.0000000000e0 1.3125000000e-2 3.2475952642e-3
0.0000000000e0 1.6875000000e-2 6.9124047358e-3
0.0000000000e0 9.3921042596e-3 6.7450566632e-3
0.0000000000e0 2.0575689701e-2 7.5387577184e-3
0.0000000000e0 1.6874109524e-2 3.0751560233e-3
0.0000000000e0 1.3125890476e-2 7.0848439767e-3
0.0000000000e0 9.4243102990e-3 2.6212422816e-3
0.0000000000e0 5.3249758464e-3 7.1684469476e-3
0.0000000000e0 2.4675024154e-2 2.9915530524e-3
0.0000000000e0 2.4145552764e-2 7.0464405194e-3
0.0000000000e0 5.8544472356e-3 3.1135594806e-3
0.0000000000e0 2.7479635784e-2 7.7520655419e-3
0.0000000000e0 2.7479635784e-2 2.4079344581e-3
0.0000000000e0 2.5203642158e-3 7.7520655419e-3
0.0000000000e0 2.5203642158e-3 2.4079344581e-3
2.2860000000e-2 2.7067060633e-2 5.0800000000e-3
2.2860000000e-2 2.9329393675e-3 5.0800000000e-3
2.2860000000e-2 2.0607895740e-2 3.4149433368e-3
2.2860000000e-2 1.3125000000e-2 3.2475952642e-3
2.2860000000e-2 1.6875000000e-2 6.9124047358e-3
2.2860000000e-2 9.3921042596e-3 6.7450566632e-3
2.2860000000e-2 2.0575689701e-2 7.5387577184e-3
2.2860000000e-2 1.6874109524e-2 3.0751560233e-3
2.2860000000e-2 1.3125890476e-2 7.0848439767e-3
2.2860000000e-2 9.4243102990e-3 2.6212422816e-3
2.2860000000e-2 5.3249758464e-3 7.1684469476e-3
2.2860000000e-2 2.4675024154e-2 2.9915530524e-3
2.2860000000e-2 2.4145552764e-2 7.0464405194e-3
2.2860000000e-2 5.8544472356e-3 3.1135594806e-3
2.2860000000e-2 2.7479635784e-2 2.4079344581e-3
2.2860000000e-2 2.7479635784e-2 7.7520655419e-3
2.2860000000e-2 2.5203642158e-3 7.7520655419e-3
2.2860000000e-2 2.5203642158e-3 2.4079344581e-3
2.9329393675e-3 0.0000000000e0 5.0800000000e-3
1.9927060633e-2 0.0000000000e0 5.0800000000e-3
9.5250000000e-3 0.0000000000e0 3.2995567884e-3
1.3335000000e-2 0.0000000000e0 6.8604432116e-3
1.3288060349e-2 0.0000000000e0 2.6642308317e-3
9.5719396507e-3 0.0000000000e0 7.4957691683e-3
1.7465697863e-2 0.0000000000e0 7.1978653226e-3
5.3943021370e-3 0.0000000000e0 2.9621346774e-3
1.6910301746e-2 0.0000000000e0 3.1611541587e-3
5.9496982536e-3 0.0000000000e0 6.9988458413e-3
2.5281752011e-3 0.0000000000e0 7.7655945654e-3
2.5281752011e-3 0.0000000000e0 2.3944054346e-3
2.0331824799e-2 0.0000000000e0 7.7655945654e-3
2.0331824799e-2 0.0000000000e0 2.3944054346e-3
2.9329393675e-3 3.0000000000e-2 5.0800000000e-3
1.9927060633e-2 3.0000000000e-2 5.0800000000e-3
9.5250000000e-3 3.0000000000e-2 3.2995567884e-3
1.3335000000e-2 3.0000000000e-2 6.8604432116e-3
1.3288060349e-2 3.0000000000e-2 2.6642308317e-3
9.5719396507e-3 3.0000000000e-2 7.4957691683e-3
1.7465697863e-2 3.0000000000e-2 7.1978653226e-3
5.3943021370e-3 3.0000000000e-2 2.9621346774e-3
1.6910301746e-2 3.0000000000e-2 3.1611541587e-3
5.9496982536e-3 3.0000000000e-2 6.9988458413e-3
2.5281752011e-3 3.0000000000e-2 7.7655945654e-3
2.5281752011e-3 3.0000000000e-2 2.3944054346e-3
2.0331824799e-2 3.0000000000e-2 7.7655945654e-3
2.0331824799e-2 3.0000000000e-2 2.3944054346e-3
3.0032597289e-3 1.7053382250e-2 0.0000000000e0
1.9374906205e-2 1.3140168730e-2 0.0000000000e0
1.3292324977e-2 2.6390097520e-2 0.0000000000e0
9.5349916220e-3 3.2987589966e-3 0.0000000000e0
1.9282143073e-2 2.0260904772e-2 0.0000000000e0
3.3990631681e-3 9.0777329865e-3 0.0000000000e0
1.6993391798e-2 3.2075459795e-3 0.0000000000e0
5.5706840137e-3 2.6774551281e-2 0.0000000000e0
1.3312591326e-2 3.2785812089e-3 0.0000000000e0
1.1435229781e-2 6.5801018339e-3 0.0000000000e0
7.0221190436e-3 6.8767844285e-3 0.0000000000e0
9.5482210217e-3 9.8627330247e-3 0.0000000000e0
1.3329378341e-2 9.8552977906e-3 0.0000000000e0
1.1442663086e-2 1.3123500598e-2 0.0000000000e0
7.7150351477e-3 1.3129967350e-2 0.0000000000e0
9.6645250455e-3 1.6332769384e-2 0.0000000000e0
1.3347048630e-2 1.6371376085e-2 0.0000000000e0
1.1441262234e-2 1.9616869481e-2 0.0000000000e0
8.0656326056e-3 1.9396484399e-2 0.0000000000e0
9.7574291791e-3 2.2918228652e-2 0.0000000000e0
1.5170836301e-2 1.9788578707e-2 0.0000000000e0
1.7106992305e-2 1.6592316327e-2 0.0000000000e0
1.6701906859e-2 2.3314854219e-2 0.0000000000e0
5.6802354321e-3 3.1827773814e-3 0.0000000000e0
1.5200355414e-2 6.5624135570e-3 0.0000000000e0
1.7104311409e-2 9.8670221071e-3 0.0000000000e0
1.9330824752e-2 6.1670243647e-3 0.0000000000e0
9.2384056136e-3 2.6583295217e-2 0.0000000000e0
1.5284216663e-2 1.3158280273e-2 0.0000000000e0
3.8333502594e-3 1.3112028103e-2 0.0000000000e0
2.9169526120e-3 2.0658918312e-2 0.0000000000e0
1.7211032325e-2 2.6909153486e-2 0.0000000000e0
3.0282716898e-3 2.4278122460e-2 0.0000000000e0
3.1513738996e-3 5.6064197490e-3 0.0000000000e0
1.3272751910e-2 2.2405725716e-2 0.0000000000e0
1.9926363821e-2 2.4391666377e-2 0.0000000000e0
6.1886758944e-3 2.2696242807e-2 0.0000000000e0
6.3313909733e-3 1.6128987380e-2 0.0000000000e0
2.0270458824e-2 1.6842117338e-2 0.0000000000e0
6.3399109015e-3 1.0257232482e-2 0.0000000000e0
2.0306008473e-2 9.5848430404e-3 0.0000000000e0
2.8124266069e-3 2.7969454326e-3 0.0000000000e0
2.0060936205e-2 2.7833688157e-3 0.0000000000e0
2.7164751199e-3 2.7280121283e-2 0.0000000000e0
2.0259599042e-2 2.7402075216e-2 0.0000000000e0
5.3011823629e-3 1.9186803030e-2 0.0000000000e0
3.4850937950e-3 1.6859831270e-2 1.0160000000e-2
1.9856740271e-2 1.2946617750e-2 1.0160000000e-2
1.3325008378e-2 2.6701241003e-2 1.0160000000e-2
9.5676750235e-3 3.6099024795e-3 1.0160000000e-2
1.9460936832e-2 2.0922267013e-2 1.0160000000e-2
3.5778569271e-3 9.7390952284e-3 1.0160000000e-2
1.7289315986e-2 3.2254487189e-3 1.0160000000e-2
5.8666082021e-3 2.6792454020e-2 1.0160000000e-2
9.5474086744e-3 2.6721418791e-2 1.0160000000e-2
1.1424770219e-2 2.3419898166e-2 1.0160000000e-2
1.5837880956e-2 2.3123215571e-2 1.0160000000e-2
1.3311778978e-2 2.0137266975e-2 1.0160000000e-2
9.5306216592e-3 2.0144702209e-2 1.0160000000e-2
1.1417336914e-2 1.6876499402e-2 1.0160000000e-2
1.5144964852e-2 1.6870032650e-2 1.0160000000e-2
1.3195474954e-2 1.3667230616e-2 1.0160000000e-2
9.5129513703e-3 1.3628623915e-2 1.0160000000e-2
1.1418737766e-2 1.0383130519e-2 1.0160000000e-2
1.4794367394e-2 1.0603515601e-2 1.0160000000e-2
1.3102570821e-2 7.0817713478e-3 1.0160000000e-2
7.6891636986e-3 1.0211421293e-2 1.0160000000e-2
5.7530076952e-3 1.3407683673e-2 1.0160000000e-2
6.1580931408e-3 6.6851457810e-3 1.0160000000e-2
1.7179764568e-2 2.6817222619e-2 1.0160000000e-2
7.6596445855e-3 2.3437586443e-2 1.0160000000e-2
5.7556885912e-3 2.0132977893e-2 1.0160000000e-2
3.5291752478e-3 2.3832975635e-2 1.0160000000e-2
1.3621594386e-2 3.4167047832e-3 1.0160000000e-2
7.5757833375e-3 1.6841719727e-2 1.0160000000e-2
1.9943047388e-2 9.3410816876e-3 1.0160000000e-2
1.9026649741e-2 1.6887971897e-2 1.0160000000e-2
5.6489676750e-3 3.0908465141e-3 1.0160000000e-2
1.9831728310e-2 5.7218775397e-3 1.0160000000e-2
1.9708626100e-2 2.4393580251e-2 1.0160000000e-2
9.5872480899e-3 7.5942742841e-3 1.0160000000e-2
[...]
POINT_DATA 242
VECTORS E_real double
0.0000000000e0 0.0000000000e0 0.0000000000e0
0.0000000000e0 0.0000000000e0 0.0000000000e0
3.1382239205e-18 1.2753068802e-18 -1.5246496494e-18
-3.8675399509e-19 6.1928880202e-19 1.1053354935e-18
-1.6145681808e-18 -5.1696223091e-19 1.0278480127e-19
2.3678859932e-19 7.9148216922e-20 -8.2843755570e-20
4.7034154993e-17 -4.8543819558e-17 -4.8258666857e-18
-3.0977581773e-18 3.6934458163e-18 -4.2546810659e-17
0.0000000000e0 0.0000000000e0 0.0000000000e0
0.0000000000e0 0.0000000000e0 0.0000000000e0
4.1542125734e-18 0.0000000000e0 0.0000000000e0
0.0000000000e0 0.0000000000e0 -2.6951989122e-19
1.0675594494e-18 0.0000000000e0 0.0000000000e0
1.5978723410e-18 0.0000000000e0 0.0000000000e0
-6.5479192610e-19 -9.0112841574e-19 1.7772741423e-18
-6.6591677613e-19 1.4259429531e-18 -1.8750709123e-18
5.9432870630e-18 0.0000000000e0 0.0000000000e0
-3.3236923869e-18 8.3358447492e-19 2.5214511992e-18
-7.1040200848e-18 -3.0118696968e-18 7.6593777504e-18
0.0000000000e0 0.0000000000e0 0.0000000000e0
0.0000000000e0 0.0000000000e0 0.0000000000e0
0.0000000000e0 0.0000000000e0 0.0000000000e0
0.0000000000e0 0.0000000000e0 0.0000000000e0
0.0000000000e0 0.0000000000e0 1.6876479316e-18
0.0000000000e0 0.0000000000e0 1.3724275795e-18
0.0000000000e0 0.0000000000e0 -1.0851276189e-18
0.0000000000e0 -1.3876819113e-18 0.0000000000e0
0.0000000000e0 6.5710804198e-19 0.0000000000e0
1.8786345591e-17 1.1232709178e-17 -4.7613302232e-18
-1.2221053702e-17 -1.3344378377e-17 -1.1055265404e-17
-2.1349037068e-19 -1.3639215024e-32 2.1536979580e-17
9.9983518426e-18 6.3827030874e-18 -3.5576027599e-17
2.7928305374e-19 2.8996037934e-18 -1.8145289599e-19
1.0955743684e-17 -1.9490700843e-17 -9.7873497827e-17
6.8248073302e-18 4.0226042870e-32 8.2182513471e-18
6.3226306568e-18 -2.1197028266e-17 -2.4655114070e-17
2.7620409763e-17 1.0781286181e-16 1.4912540038e-16
2.3317231893e-19 0.0000000000e0 3.5522755387e-34
0.0000000000e0 0.0000000000e0 -2.5087670631e-19
0.0000000000e0 0.0000000000e0 -4.8347246642e-18
1.3391889749e-18 -1.6913635766e-18 1.6074549100e-17
-1.5746952711e-18 5.2961441370e-19 -6.1147629571e-18
0.0000000000e0 0.0000000000e0 -1.0025729837e-17
-5.8745937840e-17 -1.3217376320e-16 1.4295306958e-17
0.0000000000e0 0.0000000000e0 0.0000000000e0
0.0000000000e0 0.0000000000e0 0.0000000000e0
0.0000000000e0 0.0000000000e0 2.2776107360e-19
0.0000000000e0 0.0000000000e0 0.0000000000e0
0.0000000000e0 0.0000000000e0 0.0000000000e0
-1.4417948938e-18 -1.6742965934e-18 7.7185276275e-19
0.0000000000e0 0.0000000000e0 0.0000000000e0
0.0000000000e0 -2.0688578717e-19 0.0000000000e0
-4.6177392576e-18 3.8868026659e-18 -3.6259851520e-18
0.0000000000e0 -2.0189416236e-18 0.0000000000e0
3.1858492830e-18 -3.1690779597e-18 -2.3634501048e-18
0.0000000000e0 0.0000000000e0 -6.8627554959e-19
0.0000000000e0 0.0000000000e0 -1.1822293532e-18
0.0000000000e0 0.0000000000e0 -1.0477986116e-17
0.0000000000e0 0.0000000000e0 4.1244414120e-17
1.6101639018e-17 7.3794119221e-17 1.2248938722e-17
-9.3955188205e-18 1.1881354329e-17 4.4777461777e-17
6.6969781985e-18 4.5489880747e-17 -1.7812293668e-17
1.6750624294e-17 1.8531293070e-16 3.7971490916e-17
-6.5428668952e-16 -7.4882342361e-16 -1.7277057298e-16
-3.3344509764e-4 -3.9151463730e-4 -6.0451066170e-5
-3.5161749640e-2 -2.4449666526e-2 -3.7751038357e-3
-2.1167347292e-4 6.0178738243e-4 7.4220749580e-4
1.2499536067e-3 1.5158321684e-3 2.0239260128e-3
1.3567912145e-3 -1.2036985875e-4 7.1118284570e-4
5.8050526070e-4 9.1615916241e-5 8.8007143702e-4
1.7649997722e-3 -1.5465199197e-3 -1.1775509153e-3
6.8211326483e-5 6.9083847458e-4 -7.8457646694e-4
2.4958669014e-3 4.3640225833e-4 -1.7073758219e-3
2.2034879475e-4 -1.0797664590e-3 -1.5917544695e-4
-2.2911284861e-2 3.7432604078e-2 1.6640798424e-2
3.3333605801e-4 -5.5562468420e-5 -5.3373849690e-4
-3.8013760957e-4 -5.8502754932e-5 -4.2421191937e-4
-2.2609364684e-2 4.0705590181e-3 -1.9233418982e-2
-7.6775683954e-4 1.5321720216e-3 -2.9302957147e-3
9.3366367819e-4 -9.9085484364e-5 -7.7802231925e-4
-2.0100882162e-2 -2.4742586045e-2 2.8016331921e-2
-2.6698202806e-2 -3.1509036819e-2 -8.1794398517e-3
-3.0857353752e-2 -2.1474967098e-2 -3.3158010796e-3
5.1309217484e-4 -3.6024091288e-5 -5.5622306772e-6
-3.3826933155e-4 6.4651838516e-5 6.2105187356e-4
4.6606019008e-4 1.0819047296e-4 -6.3922321782e-4
1.3179251552e-3 3.3361719332e-3 5.3442453207e-4
1.1432449120e-3 -1.9785747783e-3 7.3849032723e-4
-1.2906854914e-3 1.3864289696e-4 -2.1750782649e-3
1.3178359514e-3 -4.9280732912e-19 8.0632704559e-18
4.1479399375e-6 2.2805687512e-5 -2.5060253369e-4
8.6245907284e-4 -2.7908475076e-3 -2.2047846635e-3
-8.0500122297e-4 -2.7951252636e-5 -2.6850246205e-4
-1.8944191741e-2 2.8508106674e-2 1.5308105754e-2
-1.9859995835e-2 3.1757189407e-3 -1.5005293544e-2
1.6338585411e-3 1.4216803318e-4 1.0308809268e-3
-1.7921782231e-2 -1.9724881166e-2 2.3052274295e-2
-2.2706917998e-2 -2.5995031723e-2 -7.7517039781e-3
-1.0070125356e-3 3.3949302127e-4 -2.6109605675e-4
1.0230915521e-3 -1.1477760012e-3 1.9504261544e-3
-2.0688788769e-2 -3.1213616256e-2 -3.1181476337e-3
1.4041269480e-3 -2.7142120856e-4 -2.1162549288e-4
3.3209252530e-2 -1.0180378399e-2 -3.7148518069e-4
1.5658811606e-4 -1.3983534034e-3 9.2747750118e-4
2.5263734912e-5 -1.2868423924e-3 -6.4928545526e-4
3.8768818678e-2 -5.4725019130e-3 1.2090075643e-2
-6.4047595432e-5 -1.0564740004e-3 5.2382759260e-4
1.6302939798e-3 -2.7187583617e-2 -1.9957944777e-2
-6.8297886341e-5 -3.4575372911e-4 -3.0477102236e-4
-2.5486285665e-3 -2.2532090149e-2 1.8577811503e-2
-2.5049324163e-2 -2.1782992182e-2 2.2868193477e-2
-3.7073164796e-2 -3.3889121052e-2 5.5875480376e-3
6.8409537679e-4 2.4538630673e-5 -1.0310465268e-4
1.7488352313e-3 -1.6024884656e-3 2.6357881553e-4
-5.3883204245e-4 6.4123570175e-4 8.1211030617e-5
-1.5886762389e-2 -2.4582128668e-2 -2.3944016784e-3
-1.1049945191e-4 1.1041549164e-4 -6.5449255098e-4
2.5473582777e-2 -8.9608251023e-3 -2.8495246896e-4
2.9165988926e-2 -3.6843074474e-3 1.0842778630e-2
-4.4760689250e-4 -1.4389108134e-4 1.4808348287e-3
1.3255599282e-3 -2.0504437939e-2 -1.6227411849e-2
-1.3031777872e-3 4.7147576524e-4 -3.3395476239e-4
-1.8410906351e-3 -1.7702004487e-2 1.3420329359e-2
1.2421883649e-4 -2.1792640827e-4 5.5431147028e-4
-2.6236807480e-3 1.9841328587e-3 -3.9543271515e-4
-1.1236312187e-3 4.3807088059e-4 1.6935007965e-4
-2.8060193000e-2 -2.5534532628e-2 4.2291419465e-3
-1.7777711527e-2 -1.6773562015e-2 1.9915376188e-2
-1.0616777324e-3 -2.2360046808e-4 -6.5689543161e-4
0.0000000000e0 0.0000000000e0 -8.8701823007e-4
2.8627610355e-2 -6.1548074120e-3 2.2423487316e-3
4.0091671164e-2 -7.1452387872e-3 -2.8338181484e-3
-1.1569852662e-3 1.0070842406e-2 -5.5928834343e-3
-2.9072233909e-6 3.1295915487e-7 7.0623006273e-4
2.6013672888e-4 1.3903219987e-4 -1.3653872117e-3
-5.0551888293e-4 1.1236280973e-4 -1.8645007777e-4
-4.7745772247e-6 -8.9387606603e-4 -9.5384410281e-4
-3.8613529450e-3 2.2331415329e-3 -7.9302568457e-4
1.8293075568e-2 1.2847356411e-2 -1.1853740124e-2
7.8909858926e-7 4.0129279889e-4 2.5103611854e-3
-5.4756167961e-7 -2.7846021012e-4 1.6160890151e-3
-2.3964698885e-3 1.4051655087e-3 1.4773945794e-3
-3.8239575052e-3 -1.7642418100e-3 -9.1810338814e-4
8.8210631066e-5 -1.4428058104e-3 3.9886170603e-3
-3.8987104790e-3 -2.3505235296e-3 -8.8408689057e-4
-4.7554471543e-3 -2.7924464440e-3 -3.4731047238e-4
2.0043781863e-5 -2.6425827844e-4 3.3047101673e-4
-5.4326893304e-4 2.6097878019e-4 -7.1122017286e-4
-3.3610868865e-3 1.4593474494e-3 -5.1148595388e-3
0.0000000000e0 0.0000000000e0 -4.3509063629e-3
4.3534261179e-4 9.0872827949e-3 -1.5798097964e-3
0.0000000000e0 0.0000000000e0 -2.5728358183e-2
-8.4477747331e-4 -4.5149822179e-4 -1.2410000155e-3
2.2367671113e-4 2.5379099801e-3 -1.4268359170e-3
1.2316560563e-3 -3.5142032095e-4 -1.7702037429e-3
2.8675861679e-5 5.4991760734e-4 -5.8583965820e-4
-3.9745331564e-3 6.6731597876e-4 -6.7484436051e-4
0.0000000000e0 0.0000000000e0 -1.8765407901e-3
5.9348961314e-4 9.6121248722e-4 -4.3138705821e-4
1.8932783903e-3 -1.1709334634e-2 1.7390660383e-2
-1.2130213105e-3 3.7309974240e-5 -3.0846889340e-4
-8.4336515685e-3 2.5696964330e-2 -2.0840786811e-2
0.0000000000e0 0.0000000000e0 4.3933246133e-6
-1.4041169629e-2 2.5209219400e-2 1.1707338993e-2
0.0000000000e0 0.0000000000e0 4.6151654924e-4
6.2063400788e-3 2.8633907775e-3 1.5083357611e-3
-2.1143570320e-4 2.8697858120e-4 -1.0768131127e-3
0.0000000000e0 0.0000000000e0 2.6106186092e-3
1.5855734252e-3 -1.2848284920e-3 -6.4037984102e-4
-1.5782672623e-2 -1.4839077708e-2 -2.0218891947e-2
1.3459712596e-3 6.7672735397e-4 -1.4767911643e-3
-8.6870372358e-4 -6.6067555261e-4 -5.0260509987e-4
-1.6141302283e-2 -1.5057951232e-2 1.5178151780e-2
2.2143353811e-4 3.5863253072e-4 -4.8257895398e-4
4.2863001412e-19 4.0632887667e-19 6.5659581123e-4
-8.9901987766e-18 9.9557176230e-18 1.1755656759e-3
3.0905958130e-2 -6.9269173433e-3 -2.1065512809e-3
3.5829964782e-2 -7.3254238141e-3 3.7764787087e-3
-7.1919387178e-4 7.7420368522e-5 -5.3550990670e-4
-1.8308579984e-3 1.5936488483e-2 -3.5834036799e-3
1.7246594289e-3 8.0588602251e-5 2.9654758102e-4
-7.4360936292e-5 -3.9742809873e-5 1.7787587472e-3
8.1411377885e-6 1.5241492339e-3 5.7928977904e-4
2.2972763010e-3 -1.3285869469e-3 4.8337689834e-4
1.4999260689e-2 1.0534086915e-2 -9.1482802358e-3
-3.7803410646e-6 -1.9224766933e-3 -1.4276369521e-3
4.5283531906e-7 2.3028751425e-4 -2.0689919877e-3
-1.4917936836e-3 8.7471035637e-4 -8.1813648972e-4
1.6518799533e-3 7.6212030983e-4 2.7502945136e-3
9.0868009614e-5 -1.4862708799e-3 -1.4955025268e-3
2.7316142739e-3 1.6468839272e-3 -6.9624471115e-4
-2.9904513430e-3 -1.7560231347e-3 -2.1601428086e-3
-1.6477381879e-4 2.1723867273e-3 7.3912636403e-5
-1.7564279814e-3 8.4376338163e-4 9.2349331249e-4
-5.5525119777e-5 2.4108404412e-5 -7.7560702803e-4
-2.1566457496e-18 -1.9369147043e-18 -1.9429088960e-4
-1.0285052480e-3 1.0498077017e-2 6.1467618161e-4
6.4371307806e-17 -1.1072200542e-17 -1.9151369208e-2
6.8650140200e-5 3.6690628249e-5 1.9524214356e-3
-2.7178524852e-5 -3.0837653647e-4 7.9083838287e-4
-9.5996464625e-4 2.7390039805e-4 2.0565588157e-3
-1.2232796137e-4 -2.3458859084e-3 1.7201830309e-3
1.9117844386e-3 -2.0897498813e-3 -1.6403724264e-3
1.1203142658e-3 1.8144547739e-3 -2.9287300135e-4
-9.1365491554e-18 -1.3190842337e-17 2.6563025211e-3
2.8182179347e-3 -1.7429796398e-2 2.2160645102e-2
6.8096919819e-4 -2.0945174683e-5 -4.2862063942e-4
-6.2284282927e-3 1.8977746279e-2 -1.4913492521e-2
-6.8301580081e-18 1.3320876500e-18 6.5273284108e-4
-1.8746608313e-2 3.6449285679e-2 1.7443961127e-2
8.0008682582e-18 -2.2835944749e-17 5.4980144438e-4
-7.2542701060e-4 -3.3468694681e-4 3.6644953284e-3
3.4860701020e-5 1.0077660749e-5 -8.4451287261e-4
-1.9805250022e-17 -3.0480770690e-17 3.5390312978e-3
-3.7697216169e-4 -4.4066399668e-3 -7.4932910229e-4
-1.1398469247e-2 -1.3436634437e-2 -1.5564625660e-2
3.0837540837e-4 3.9419942879e-4 1.0826066933e-4
-1.7415692186e-3 -1.1071021563e-3 1.4071652956e-3
-2.3374221940e-2 -1.8268756986e-2 2.0920133347e-2
9.0649786399e-4 1.4681589150e-3 1.5378375802e-3
-6.2980963075e-3 -9.9508099178e-3 2.0099253213e-3
3.4928382034e-3 4.0632399505e-3 -2.9930379420e-3
-6.7619179561e-2 1.7003129838e-2 -1.8988815807e-2
-8.5067797826e-2 1.9590652400e-2 -2.2085167078e-2
-2.6765800009e-3 -2.4016207610e-3 -5.8549921697e-3
1.7823972992e-3 -8.7648832372e-4 4.5806178200e-4
5.5504468224e-3 5.1381422191e-6 -2.6515469712e-3
-9.6943214973e-4 -9.3290959273e-4 1.0147696836e-3
-3.8482137932e-3 5.1100543497e-3 -2.0892175036e-3
-4.2564991042e-4 8.5050529556e-4 -1.5928085008e-3
4.3031688255e-3 -7.5783263339e-4 2.5334340701e-3
2.9717793789e-3 2.8069611418e-3 2.0400095114e-3
1.4614022356e-3 -9.0445957166e-4 -1.4780666672e-3
6.6743719970e-3 1.1306940149e-3 7.6836619948e-4
-6.8134281701e-3 1.3463242124e-3 -4.2967057272e-3
-2.7657015094e-3 2.8102160983e-3 -1.0595725867e-3
5.2731721382e-3 -1.9201889500e-3 -3.3193983488e-3
-1.9105126592e-3 -8.1869415940e-4 1.2509994850e-4
6.7401854260e-4 5.4964069419e-3 -4.5094437356e-3
7.9886868902e-3 -4.6018437820e-3 3.0299145998e-3
3.6725302503e-3 3.3870296486e-3 9.5104880565e-3
-1.0784217082e-3 -2.2320191352e-3 3.2062183755e-3
VECTORS E_imag double
0.0000000000e0 0.0000000000e0 0.0000000000e0
0.0000000000e0 0.0000000000e0 0.0000000000e0
0.0000000000e0 0.0000000000e0 0.0000000000e0
0.0000000000e0 0.0000000000e0 0.0000000000e0
0.0000000000e0 0.0000000000e0 0.0000000000e0
0.0000000000e0 0.0000000000e0 0.0000000000e0
0.0000000000e0 0.0000000000e0 0.0000000000e0
0.0000000000e0 0.0000000000e0 0.0000000000e0
0.0000000000e0 0.0000000000e0 0.0000000000e0
0.0000000000e0 0.0000000000e0 0.0000000000e0
0.0000000000e0 0.0000000000e0 0.0000000000e0
0.0000000000e0 0.0000000000e0 0.0000000000e0
0.0000000000e0 0.0000000000e0 0.0000000000e0
0.0000000000e0 0.0000000000e0 0.0000000000e0
0.0000000000e0 0.0000000000e0 0.0000000000e0
0.0000000000e0 0.0000000000e0 0.0000000000e0
0.0000000000e0 0.0000000000e0 0.0000000000e0
0.0000000000e0 0.0000000000e0 0.0000000000e0
0.0000000000e0 0.0000000000e0 0.0000000000e0
0.0000000000e0 0.0000000000e0 0.0000000000e0
0.0000000000e0 0.0000000000e0 0.0000000000e0
0.0000000000e0 0.0000000000e0 0.0000000000e0
0.0000000000e0 0.0000000000e0 0.0000000000e0
0.0000000000e0 0.0000000000e0 0.0000000000e0
0.0000000000e0 0.0000000000e0 0.0000000000e0
0.0000000000e0 0.0000000000e0 0.0000000000e0
0.0000000000e0 0.0000000000e0 0.0000000000e0
0.0000000000e0 0.0000000000e0 0.0000000000e0
0.0000000000e0 0.0000000000e0 0.0000000000e0
0.0000000000e0 0.0000000000e0 0.0000000000e0
0.0000000000e0 0.0000000000e0 0.0000000000e0
0.0000000000e0 0.0000000000e0 0.0000000000e0
0.0000000000e0 0.0000000000e0 0.0000000000e0
0.0000000000e0 0.0000000000e0 0.0000000000e0
0.0000000000e0 0.0000000000e0 0.0000000000e0
0.0000000000e0 0.0000000000e0 0.0000000000e0
0.0000000000e0 0.0000000000e0 0.0000000000e0
0.0000000000e0 0.0000000000e0 0.0000000000e0
0.0000000000e0 0.0000000000e0 0.0000000000e0
0.0000000000e0 0.0000000000e0 0.0000000000e0
0.0000000000e0 0.0000000000e0 0.0000000000e0
0.0000000000e0 0.0000000000e0 0.0000000000e0
0.0000000000e0 0.0000000000e0 0.0000000000e0
0.0000000000e0 0.0000000000e0 0.0000000000e0
0.0000000000e0 0.0000000000e0 0.0000000000e0
0.0000000000e0 0.0000000000e0 0.0000000000e0
0.0000000000e0 0.0000000000e0 0.0000000000e0
0.0000000000e0 0.0000000000e0 0.0000000000e0
0.0000000000e0 0.0000000000e0 0.0000000000e0
0.0000000000e0 0.0000000000e0 0.0000000000e0
0.0000000000e0 0.0000000000e0 0.0000000000e0
0.0000000000e0 0.0000000000e0 0.0000000000e0
0.0000000000e0 0.0000000000e0 0.0000000000e0
0.0000000000e0 0.0000000000e0 0.0000000000e0
0.0000000000e0 0.0000000000e0 0.0000000000e0
0.0000000000e0 0.0000000000e0 0.0000000000e0
0.0000000000e0 0.0000000000e0 0.0000000000e0
0.0000000000e0 0.0000000000e0 0.0000000000e0
0.0000000000e0 0.0000000000e0 0.0000000000e0
0.0000000000e0 0.0000000000e0 0.0000000000e0
0.0000000000e0 0.0000000000e0 0.0000000000e0
0.0000000000e0 0.0000000000e0 0.0000000000e0
0.0000000000e0 0.0000000000e0 0.0000000000e0
0.0000000000e0 0.0000000000e0 0.0000000000e0
0.0000000000e0 0.0000000000e0 0.0000000000e0
0.0000000000e0 0.0000000000e0 0.0000000000e0
0.0000000000e0 0.0000000000e0 0.0000000000e0
0.0000000000e0 0.0000000000e0 0.0000000000e0
0.0000000000e0 0.0000000000e0 0.0000000000e0
0.0000000000e0 0.0000000000e0 0.0000000000e0
0.0000000000e0 0.0000000000e0 0.0000000000e0
0.0000000000e0 0.0000000000e0 0.0000000000e0
0.0000000000e0 0.0000000000e0 0.0000000000e0
0.0000000000e0 0.0000000000e0 0.0000000000e0
0.0000000000e0 0.0000000000e0 0.0000000000e0
0.0000000000e0 0.0000000000e0 0.0000000000e0
0.0000000000e0 0.0000000000e0 0.0000000000e0
0.0000000000e0 0.0000000000e0 0.0000000000e0
0.0000000000e0 0.0000000000e0 0.0000000000e0
0.0000000000e0 0.0000000000e0 0.0000000000e0
0.0000000000e0 0.0000000000e0 0.0000000000e0
0.0000000000e0 0.0000000000e0 0.0000000000e0
0.0000000000e0 0.0000000000e0 0.0000000000e0
0.0000000000e0 0.0000000000e0 0.0000000000e0
0.0000000000e0 0.0000000000e0 0.0000000000e0
0.0000000000e0 0.0000000000e0 0.0000000000e0
0.0000000000e0 0.0000000000e0 0.0000000000e0
0.0000000000e0 0.0000000000e0 0.0000000000e0
0.0000000000e0 0.0000000000e0 0.0000000000e0
0.0000000000e0 0.0000000000e0 0.0000000000e0
0.0000000000e0 0.0000000000e0 0.0000000000e0
0.0000000000e0 0.0000000000e0 0.0000000000e0
0.0000000000e0 0.0000000000e0 0.0000000000e0
0.0000000000e0 0.0000000000e0 0.0000000000e0
0.0000000000e0 0.0000000000e0 0.0000000000e0
0.0000000000e0 0.0000000000e0 0.0000000000e0
0.0000000000e0 0.0000000000e0 0.0000000000e0
0.0000000000e0 0.0000000000e0 0.0000000000e0
0.0000000000e0 0.0000000000e0 0.0000000000e0
0.0000000000e0 0.0000000000e0 0.0000000000e0
0.0000000000e0 0.0000000000e0 0.0000000000e0
0.0000000000e0 0.0000000000e0 0.0000000000e0
0.0000000000e0 0.0000000000e0 0.0000000000e0
0.0000000000e0 0.0000000000e0 0.0000000000e0
0.0000000000e0 0.0000000000e0 0.0000000000e0
0.0000000000e0 0.0000000000e0 0.0000000000e0
0.0000000000e0 0.0000000000e0 0.0000000000e0
0.0000000000e0 0.0000000000e0 0.0000000000e0
0.0000000000e0 0.0000000000e0 0.0000000000e0
0.0000000000e0 0.0000000000e0 0.0000000000e0
0.0000000000e0 0.0000000000e0 0.0000000000e0
0.0000000000e0 0.0000000000e0 0.0000000000e0
0.0000000000e0 0.0000000000e0 0.0000000000e0
0.0000000000e0 0.0000000000e0 0.0000000000e0
0.0000000000e0 0.0000000000e0 0.0000000000e0
0.0000000000e0 0.0000000000e0 0.0000000000e0
0.0000000000e0 0.0000000000e0 0.0000000000e0
0.0000000000e0 0.0000000000e0 0.0000000000e0
0.0000000000e0 0.0000000000e0 0.0000000000e0
0.0000000000e0 0.0000000000e0 0.0000000000e0
0.0000000000e0 0.0000000000e0 0.0000000000e0
0.0000000000e0 0.0000000000e0 0.0000000000e0
0.0000000000e0 0.0000000000e0 0.0000000000e0
0.0000000000e0 0.0000000000e0 0.0000000000e0
0.0000000000e0 0.0000000000e0 0.0000000000e0
0.0000000000e0 0.0000000000e0 0.0000000000e0
0.0000000000e0 0.0000000000e0 0.0000000000e0
0.0000000000e0 0.0000000000e0 0.0000000000e0
0.0000000000e0 0.0000000000e0 0.0000000000e0
0.0000000000e0 0.0000000000e0 0.0000000000e0
0.0000000000e0 0.0000000000e0 0.0000000000e0
0.0000000000e0 0.0000000000e0 0.0000000000e0
0.0000000000e0 0.0000000000e0 0.0000000000e0
0.0000000000e0 0.0000000000e0 0.0000000000e0
0.0000000000e0 0.0000000000e0 0.0000000000e0
0.0000000000e0 0.0000000000e0 0.0000000000e0
0.0000000000e0 0.0000000000e0 0.0000000000e0
0.0000000000e0 0.0000000000e0 0.0000000000e0
0.0000000000e0 0.0000000000e0 0.0000000000e0
0.0000000000e0 0.0000000000e0 0.0000000000e0
0.0000000000e0 0.0000000000e0 0.0000000000e0
0.0000000000e0 0.0000000000e0 0.0000000000e0
0.0000000000e0 0.0000000000e0 0.0000000000e0
0.0000000000e0 0.0000000000e0 0.0000000000e0
0.0000000000e0 0.0000000000e0 0.0000000000e0
0.0000000000e0 0.0000000000e0 0.0000000000e0
0.0000000000e0 0.0000000000e0 0.0000000000e0
0.0000000000e0 0.0000000000e0 0.0000000000e0
0.0000000000e0 0.0000000000e0 0.0000000000e0
0.0000000000e0 0.0000000000e0 0.0000000000e0
0.0000000000e0 0.0000000000e0 0.0000000000e0
0.0000000000e0 0.0000000000e0 0.0000000000e0
0.0000000000e0 0.0000000000e0 0.0000000000e0
0.0000000000e0 0.0000000000e0 0.0000000000e0
0.0000000000e0 0.0000000000e0 0.0000000000e0
0.0000000000e0 0.0000000000e0 0.0000000000e0
0.0000000000e0 0.0000000000e0 0.0000000000e0
0.0000000000e0 0.0000000000e0 0.0000000000e0
0.0000000000e0 0.0000000000e0 0.0000000000e0
0.0000000000e0 0.0000000000e0 0.0000000000e0
0.0000000000e0 0.0000000000e0 0.0000000000e0
0.0000000000e0 0.0000000000e0 0.0000000000e0
0.0000000000e0 0.0000000000e0 0.0000000000e0
0.0000000000e0 0.0000000000e0 0.0000000000e0
0.0000000000e0 0.0000000000e0 0.0000000000e0
0.0000000000e0 0.0000000000e0 0.0000000000e0
0.0000000000e0 0.0000000000e0 0.0000000000e0
0.0000000000e0 0.0000000000e0 0.0000000000e0
0.0000000000e0 0.0000000000e0 0.0000000000e0
0.0000000000e0 0.0000000000e0 0.0000000000e0
0.0000000000e0 0.0000000000e0 0.0000000000e0
0.0000000000e0 0.0000000000e0 0.0000000000e0
0.0000000000e0 0.0000000000e0 0.0000000000e0
0.0000000000e0 0.0000000000e0 0.0000000000e0
0.0000000000e0 0.0000000000e0 0.0000000000e0
0.0000000000e0 0.0000000000e0 0.0000000000e0