# vtk DataFile Version 3.0
RapidFEM Mode 3 f=11.9876GHz
ASCII
DATASET UNSTRUCTURED_GRID
POINTS 242 double
0.0000000000e0 0.0000000000e0 1.0160000000e-2
0.0000000000e0 0.0000000000e0 0.0000000000e0
0.0000000000e0 3.0000000000e-2 1.0160000000e-2
0.0000000000e0 3.0000000000e-2 0.0000000000e0
2.2860000000e-2 0.0000000000e0 1.0160000000e-2
2.2860000000e-2 0.0000000000e0 0.0000000000e0
2.2860000000e-2 3.0000000000e-2 1.0160000000e-2
2.2860000000e-2 3.0000000000e-2 0.0000000000e0
0.0000000000e0 0.0000000000e0 3.3866666667e-3
0.0000000000e0 0.0000000000e0 6.7733333333e-3
0.0000000000e0 3.7500000000e-3 1.0160000000e-2
0.0000000000e0 7.5000000000e-3 1.0160000000e-2
0.0000000000e0 1.1250000000e-2 1.0160000000e-2
0.0000000000e0 1.5000000000e-2 1.0160000000e-2
0.0000000000e0 1.8750000000e-2 1.0160000000e-2
0.0000000000e0 2.2500000000e-2 1.0160000000e-2
0.0000000000e0 2.6250000000e-2 1.0160000000e-2
0.0000000000e0 3.0000000000e-2 3.3866666667e-3
0.0000000000e0 3.0000000000e-2 6.7733333333e-3
0.0000000000e0 3.7500000000e-3 0.0000000000e0
0.0000000000e0 7.5000000000e-3 0.0000000000e0
0.0000000000e0 1.1250000000e-2 0.0000000000e0
0.0000000000e0 1.5000000000e-2 0.0000000000e0
0.0000000000e0 1.8750000000e-2 0.0000000000e0
0.0000000000e0 2.2500000000e-2 0.0000000000e0
0.0000000000e0 2.6250000000e-2 0.0000000000e0
2.2860000000e-2 0.0000000000e0 3.3866666667e-3
2.2860000000e-2 0.0000000000e0 6.7733333333e-3
2.2860000000e-2 3.7500000000e-3 1.0160000000e-2
2.2860000000e-2 7.5000000000e-3 1.0160000000e-2
2.2860000000e-2 1.1250000000e-2 1.0160000000e-2
2.2860000000e-2 1.5000000000e-2 1.0160000000e-2
2.2860000000e-2 1.8750000000e-2 1.0160000000e-2
2.2860000000e-2 2.2500000000e-2 1.0160000000e-2
2.2860000000e-2 2.6250000000e-2 1.0160000000e-2
2.2860000000e-2 3.0000000000e-2 3.3866666667e-3
2.2860000000e-2 3.0000000000e-2 6.7733333333e-3
2.2860000000e-2 3.7500000000e-3 0.0000000000e0
2.2860000000e-2 7.5000000000e-3 0.0000000000e0
2.2860000000e-2 1.1250000000e-2 0.0000000000e0
2.2860000000e-2 1.5000000000e-2 0.0000000000e0
2.2860000000e-2 1.8750000000e-2 0.0000000000e0
2.2860000000e-2 2.2500000000e-2 0.0000000000e0
2.2860000000e-2 2.6250000000e-2 0.0000000000e0
3.8100000000e-3 0.0000000000e0 0.0000000000e0
7.6200000000e-3 0.0000000000e0 0.0000000000e0
1.1430000000e-2 0.0000000000e0 0.0000000000e0
1.5240000000e-2 0.0000000000e0 0.0000000000e0
1.9050000000e-2 0.0000000000e0 0.0000000000e0
3.8100000000e-3 0.0000000000e0 1.0160000000e-2
7.6200000000e-3 0.0000000000e0 1.0160000000e-2
1.1430000000e-2 0.0000000000e0 1.0160000000e-2
1.5240000000e-2 0.0000000000e0 1.0160000000e-2
1.9050000000e-2 0.0000000000e0 1.0160000000e-2
3.8100000000e-3 3.0000000000e-2 0.0000000000e0
7.6200000000e-3 3.0000000000e-2 0.0000000000e0
1.1430000000e-2 3.0000000000e-2 0.0000000000e0
1.5240000000e-2 3.0000000000e-2 0.0000000000e0
1.9050000000e-2 3.0000000000e-2 0.0000000000e0
3.8100000000e-3 3.0000000000e-2 1.0160000000e-2
7.6200000000e-3 3.0000000000e-2 1.0160000000e-2
1.1430000000e-2 3.0000000000e-2 1.0160000000e-2
1.5240000000e-2 3.0000000000e-2 1.0160000000e-2
1.9050000000e-2 3.0000000000e-2 1.0160000000e-2
0.0000000000e0 2.7067060633e-2 5.0800000000e-3
0.0000000000e0 2.9329393675e-3 5.0800000000e-3
0.0000000000e0 2.0607895740e-2 3.4149433368e-3
0.0000000000e0 1.3125000000e-2 3.2475952642e-3
0.0000000000e0 1.6875000000e-2 6.9124047358e-3
0.0000000000e0 9.3921042596e-3 6.7450566632e-3
0.0000000000e0 2.0575689701e-2 7.5387577184e-3
0.0000000000e0 1.6874109524e-2 3.0751560233e-3
0.0000000000e0 1.3125890476e-2 7.0848439767e-3
0.0000000000e0 9.4243102990e-3 2.6212422816e-3
0.0000000000e0 5.3249758464e-3 7.1684469476e-3
0.0000000000e0 2.4675024154e-2 2.9915530524e-3
0.0000000000e0 2.4145552764e-2 7.0464405194e-3
0.0000000000e0 5.8544472356e-3 3.1135594806e-3
0.0000000000e0 2.7479635784e-2 7.7520655419e-3
0.0000000000e0 2.7479635784e-2 2.4079344581e-3
0.0000000000e0 2.5203642158e-3 7.7520655419e-3
0.0000000000e0 2.5203642158e-3 2.4079344581e-3
2.2860000000e-2 2.7067060633e-2 5.0800000000e-3
2.2860000000e-2 2.9329393675e-3 5.0800000000e-3
2.2860000000e-2 2.0607895740e-2 3.4149433368e-3
2.2860000000e-2 1.3125000000e-2 3.2475952642e-3
2.2860000000e-2 1.6875000000e-2 6.9124047358e-3
2.2860000000e-2 9.3921042596e-3 6.7450566632e-3
2.2860000000e-2 2.0575689701e-2 7.5387577184e-3
2.2860000000e-2 1.6874109524e-2 3.0751560233e-3
2.2860000000e-2 1.3125890476e-2 7.0848439767e-3
2.2860000000e-2 9.4243102990e-3 2.6212422816e-3
2.2860000000e-2 5.3249758464e-3 7.1684469476e-3
2.2860000000e-2 2.4675024154e-2 2.9915530524e-3
2.2860000000e-2 2.4145552764e-2 7.0464405194e-3
2.2860000000e-2 5.8544472356e-3 3.1135594806e-3
2.2860000000e-2 2.7479635784e-2 2.4079344581e-3
2.2860000000e-2 2.7479635784e-2 7.7520655419e-3
2.2860000000e-2 2.5203642158e-3 7.7520655419e-3
2.2860000000e-2 2.5203642158e-3 2.4079344581e-3
2.9329393675e-3 0.0000000000e0 5.0800000000e-3
1.9927060633e-2 0.0000000000e0 5.0800000000e-3
9.5250000000e-3 0.0000000000e0 3.2995567884e-3
1.3335000000e-2 0.0000000000e0 6.8604432116e-3
1.3288060349e-2 0.0000000000e0 2.6642308317e-3
9.5719396507e-3 0.0000000000e0 7.4957691683e-3
1.7465697863e-2 0.0000000000e0 7.1978653226e-3
5.3943021370e-3 0.0000000000e0 2.9621346774e-3
1.6910301746e-2 0.0000000000e0 3.1611541587e-3
5.9496982536e-3 0.0000000000e0 6.9988458413e-3
2.5281752011e-3 0.0000000000e0 7.7655945654e-3
2.5281752011e-3 0.0000000000e0 2.3944054346e-3
2.0331824799e-2 0.0000000000e0 7.7655945654e-3
2.0331824799e-2 0.0000000000e0 2.3944054346e-3
2.9329393675e-3 3.0000000000e-2 5.0800000000e-3
1.9927060633e-2 3.0000000000e-2 5.0800000000e-3
9.5250000000e-3 3.0000000000e-2 3.2995567884e-3
1.3335000000e-2 3.0000000000e-2 6.8604432116e-3
1.3288060349e-2 3.0000000000e-2 2.6642308317e-3
9.5719396507e-3 3.0000000000e-2 7.4957691683e-3
1.7465697863e-2 3.0000000000e-2 7.1978653226e-3
5.3943021370e-3 3.0000000000e-2 2.9621346774e-3
1.6910301746e-2 3.0000000000e-2 3.1611541587e-3
5.9496982536e-3 3.0000000000e-2 6.9988458413e-3
2.5281752011e-3 3.0000000000e-2 7.7655945654e-3
2.5281752011e-3 3.0000000000e-2 2.3944054346e-3
2.0331824799e-2 3.0000000000e-2 7.7655945654e-3
2.0331824799e-2 3.0000000000e-2 2.3944054346e-3
3.0032597289e-3 1.7053382250e-2 0.0000000000e0
1.9374906205e-2 1.3140168730e-2 0.0000000000e0
1.3292324977e-2 2.6390097520e-2 0.0000000000e0
9.5349916220e-3 3.2987589966e-3 0.0000000000e0
1.9282143073e-2 2.0260904772e-2 0.0000000000e0
3.3990631681e-3 9.0777329865e-3 0.0000000000e0
1.6993391798e-2 3.2075459795e-3 0.0000000000e0
5.5706840137e-3 2.6774551281e-2 0.0000000000e0
1.3312591326e-2 3.2785812089e-3 0.0000000000e0
1.1435229781e-2 6.5801018339e-3 0.0000000000e0
7.0221190436e-3 6.8767844285e-3 0.0000000000e0
9.5482210217e-3 9.8627330247e-3 0.0000000000e0
1.3329378341e-2 9.8552977906e-3 0.0000000000e0
1.1442663086e-2 1.3123500598e-2 0.0000000000e0
7.7150351477e-3 1.3129967350e-2 0.0000000000e0
9.6645250455e-3 1.6332769384e-2 0.0000000000e0
1.3347048630e-2 1.6371376085e-2 0.0000000000e0
1.1441262234e-2 1.9616869481e-2 0.0000000000e0
8.0656326056e-3 1.9396484399e-2 0.0000000000e0
9.7574291791e-3 2.2918228652e-2 0.0000000000e0
1.5170836301e-2 1.9788578707e-2 0.0000000000e0
1.7106992305e-2 1.6592316327e-2 0.0000000000e0
1.6701906859e-2 2.3314854219e-2 0.0000000000e0
5.6802354321e-3 3.1827773814e-3 0.0000000000e0
1.5200355414e-2 6.5624135570e-3 0.0000000000e0
1.7104311409e-2 9.8670221071e-3 0.0000000000e0
1.9330824752e-2 6.1670243647e-3 0.0000000000e0
9.2384056136e-3 2.6583295217e-2 0.0000000000e0
1.5284216663e-2 1.3158280273e-2 0.0000000000e0
3.8333502594e-3 1.3112028103e-2 0.0000000000e0
2.9169526120e-3 2.0658918312e-2 0.0000000000e0
1.7211032325e-2 2.6909153486e-2 0.0000000000e0
3.0282716898e-3 2.4278122460e-2 0.0000000000e0
3.1513738996e-3 5.6064197490e-3 0.0000000000e0
1.3272751910e-2 2.2405725716e-2 0.0000000000e0
1.9926363821e-2 2.4391666377e-2 0.0000000000e0
6.1886758944e-3 2.2696242807e-2 0.0000000000e0
6.3313909733e-3 1.6128987380e-2 0.0000000000e0
2.0270458824e-2 1.6842117338e-2 0.0000000000e0
6.3399109015e-3 1.0257232482e-2 0.0000000000e0
2.0306008473e-2 9.5848430404e-3 0.0000000000e0
2.8124266069e-3 2.7969454326e-3 0.0000000000e0
2.0060936205e-2 2.7833688157e-3 0.0000000000e0
2.7164751199e-3 2.7280121283e-2 0.0000000000e0
2.0259599042e-2 2.7402075216e-2 0.0000000000e0
5.3011823629e-3 1.9186803030e-2 0.0000000000e0
3.4850937950e-3 1.6859831270e-2 1.0160000000e-2
1.9856740271e-2 1.2946617750e-2 1.0160000000e-2
1.3325008378e-2 2.6701241003e-2 1.0160000000e-2
9.5676750235e-3 3.6099024795e-3 1.0160000000e-2
1.9460936832e-2 2.0922267013e-2 1.0160000000e-2
3.5778569271e-3 9.7390952284e-3 1.0160000000e-2
1.7289315986e-2 3.2254487189e-3 1.0160000000e-2
5.8666082021e-3 2.6792454020e-2 1.0160000000e-2
9.5474086744e-3 2.6721418791e-2 1.0160000000e-2
1.1424770219e-2 2.3419898166e-2 1.0160000000e-2
1.5837880956e-2 2.3123215571e-2 1.0160000000e-2
1.3311778978e-2 2.0137266975e-2 1.0160000000e-2
9.5306216592e-3 2.0144702209e-2 1.0160000000e-2
1.1417336914e-2 1.6876499402e-2 1.0160000000e-2
1.5144964852e-2 1.6870032650e-2 1.0160000000e-2
1.3195474954e-2 1.3667230616e-2 1.0160000000e-2
9.5129513703e-3 1.3628623915e-2 1.0160000000e-2
1.1418737766e-2 1.0383130519e-2 1.0160000000e-2
1.4794367394e-2 1.0603515601e-2 1.0160000000e-2
1.3102570821e-2 7.0817713478e-3 1.0160000000e-2
7.6891636986e-3 1.0211421293e-2 1.0160000000e-2
5.7530076952e-3 1.3407683673e-2 1.0160000000e-2
6.1580931408e-3 6.6851457810e-3 1.0160000000e-2
1.7179764568e-2 2.6817222619e-2 1.0160000000e-2
7.6596445855e-3 2.3437586443e-2 1.0160000000e-2
5.7556885912e-3 2.0132977893e-2 1.0160000000e-2
3.5291752478e-3 2.3832975635e-2 1.0160000000e-2
1.3621594386e-2 3.4167047832e-3 1.0160000000e-2
7.5757833375e-3 1.6841719727e-2 1.0160000000e-2
1.9943047388e-2 9.3410816876e-3 1.0160000000e-2
1.9026649741e-2 1.6887971897e-2 1.0160000000e-2
5.6489676750e-3 3.0908465141e-3 1.0160000000e-2
1.9831728310e-2 5.7218775397e-3 1.0160000000e-2
1.9708626100e-2 2.4393580251e-2 1.0160000000e-2
9.5872480899e-3 7.5942742841e-3 1.0160000000e-2
[...]
POINT_DATA 242
VECTORS E_real double
0.0000000000e0 0.0000000000e0 0.0000000000e0
0.0000000000e0 0.0000000000e0 0.0000000000e0
2.9756655627e-20 1.3583900811e-18 2.7924384638e-18
2.9297898786e-18 4.0342406855e-18 1.5410901069e-18
-4.9810948751e-18 -8.0791377811e-18 7.0296910740e-18
1.5693284347e-18 1.2554662254e-18 -1.3140856629e-18
3.1606036778e-18 2.9936321963e-17 -1.0234837179e-16
-1.7856546359e-17 2.2883740404e-17 4.9748553666e-17
0.0000000000e0 0.0000000000e0 0.0000000000e0
0.0000000000e0 0.0000000000e0 0.0000000000e0
1.8373934654e-19 0.0000000000e0 0.0000000000e0
0.0000000000e0 0.0000000000e0 -7.6832620633e-19
3.5374164966e-19 0.0000000000e0 0.0000000000e0
-9.6268210302e-19 0.0000000000e0 0.0000000000e0
-7.7321985116e-19 -8.4290362415e-20 -4.6531981988e-19
-1.3715363108e-17 -2.8758649203e-17 2.3950946541e-17
5.1561951591e-17 0.0000000000e0 0.0000000000e0
-1.4056889220e-17 -7.1207473669e-18 -6.0116109428e-17
-9.7968174232e-18 2.7543691760e-19 3.7445607908e-17
0.0000000000e0 0.0000000000e0 0.0000000000e0
0.0000000000e0 0.0000000000e0 0.0000000000e0
0.0000000000e0 0.0000000000e0 0.0000000000e0
0.0000000000e0 0.0000000000e0 0.0000000000e0
0.0000000000e0 0.0000000000e0 -3.3600800328e-18
0.0000000000e0 0.0000000000e0 3.8220842541e-18
0.0000000000e0 0.0000000000e0 -1.0116841989e-17
0.0000000000e0 7.6642407962e-18 0.0000000000e0
0.0000000000e0 -2.5946408431e-17 0.0000000000e0
-5.6324719023e-17 1.6799428439e-19 5.5931396741e-17
3.0975338777e-17 9.5345685454e-17 1.1623861610e-16
8.6492293779e-19 2.1939956433e-33 -4.6759871910e-17
-3.0954519934e-17 2.3789784671e-17 4.2408448005e-17
-1.1936333431e-17 -8.8949568255e-18 -1.2265129229e-17
4.6768017281e-18 -5.5858836061e-18 -5.9352774486e-18
6.7635969469e-18 2.4689692183e-31 -7.4453536242e-17
4.6741041549e-18 2.3523235796e-17 7.0116170648e-18
1.6967011928e-17 -2.5314126406e-17 1.7231457410e-18
-7.0195864964e-18 0.0000000000e0 -1.0694024710e-32
0.0000000000e0 0.0000000000e0 -5.7139176516e-18
0.0000000000e0 0.0000000000e0 -1.0173150877e-17
7.1467336970e-18 -1.4751630302e-17 5.5937846199e-18
-7.3928915689e-18 -3.6056453583e-18 -1.8848602099e-19
0.0000000000e0 0.0000000000e0 -4.1048542106e-18
4.2300196267e-17 2.6834555463e-17 2.0591588741e-17
0.0000000000e0 0.0000000000e0 0.0000000000e0
0.0000000000e0 0.0000000000e0 0.0000000000e0
0.0000000000e0 0.0000000000e0 1.0270705290e-18
0.0000000000e0 0.0000000000e0 0.0000000000e0
0.0000000000e0 0.0000000000e0 0.0000000000e0
-8.2785859375e-19 9.4663376999e-19 4.4318713119e-19
0.0000000000e0 0.0000000000e0 0.0000000000e0
0.0000000000e0 6.2289255022e-19 0.0000000000e0
5.9647798736e-18 -1.3056491051e-17 1.2790390571e-18
0.0000000000e0 1.5095179402e-17 0.0000000000e0
2.1268818351e-17 -1.1500722072e-17 7.6777376807e-18
0.0000000000e0 0.0000000000e0 -7.1385645569e-19
0.0000000000e0 0.0000000000e0 2.6660778539e-18
0.0000000000e0 0.0000000000e0 1.0114333532e-18
0.0000000000e0 0.0000000000e0 -2.2315717419e-17
2.8894460170e-17 1.2757807123e-16 -3.1261309153e-17
-3.6367025094e-18 -9.3035276586e-18 1.7812062078e-18
3.5928461032e-17 -2.9876336203e-17 -7.3399369298e-17
5.3999719975e-18 3.5590317628e-18 3.5877656635e-18
9.3741144318e-17 6.5938886539e-17 -7.3907380774e-17
4.0621815910e-2 -2.6559773066e-2 -4.1009107863e-3
1.4838715793e-3 8.2193269477e-4 1.2690894027e-4
4.3879660055e-3 3.8191782230e-2 9.1037090940e-3
1.5592124708e-3 -1.0278955430e-3 -1.1237992672e-3
3.7738433205e-3 -3.2197310246e-6 1.9023179858e-5
1.1908589826e-3 5.1445601009e-6 4.9419146657e-5
8.9795411505e-3 4.1252085168e-2 -1.3123048562e-2
3.0322452642e-3 -2.1627914110e-4 7.9654627941e-4
3.1989115601e-4 6.6971554974e-4 2.3195347025e-4
1.7505141617e-3 -2.3730964698e-4 5.4599892582e-6
2.4789570253e-4 1.1945548786e-3 -1.0791678808e-4
3.0260682667e-2 2.2582064346e-3 2.1692551508e-2
2.9090820273e-2 -2.4060511276e-3 -1.7446623977e-2
1.6173797998e-3 1.5693032209e-4 -7.4149683678e-4
3.1254667757e-2 -3.2353305658e-2 -8.6432931338e-3
3.0404362776e-2 -3.3003772444e-2 9.6289647444e-3
8.7363759875e-4 -3.0171856462e-4 1.2972973100e-3
2.2356553850e-3 1.0583763457e-3 -7.6925468518e-4
-8.4782886383e-4 -1.2946190238e-3 -1.9989316572e-4
2.6399436882e-2 -1.8363033969e-2 -2.8353090173e-3
-8.0094726722e-4 -9.5850843613e-5 -9.2075256287e-4
2.2782100667e-3 3.4163225769e-4 -2.0184704355e-3
2.5135787511e-4 -1.6653403813e-3 5.9912641466e-4
4.0163619372e-3 2.6356253733e-2 7.2403167259e-3
4.4284031723e-4 8.6835131393e-4 2.4029834103e-4
-6.3346293517e-4 1.3946123905e-18 -7.3593548791e-19
2.4507301851e-3 -2.5837295197e-4 2.8391565204e-3
5.1532272339e-3 2.5631127110e-2 -9.9916193367e-3
1.8436591483e-2 1.4285879414e-3 1.3723155256e-2
8.4946969602e-5 1.0712249559e-4 -3.9074122769e-4
-1.2030483756e-3 1.0803945219e-4 -5.1048714475e-4
1.8480508423e-2 -1.4780704116e-3 -1.0717701875e-2
-2.0901781302e-3 1.3609868664e-3 -3.4989226851e-4
-3.0009671580e-3 -2.4389009238e-4 -6.2312290040e-4
1.6811153939e-2 -2.3210359585e-2 8.0322710593e-3
1.7244567700e-2 -2.3193752325e-2 -1.0206341171e-2
2.9962711674e-3 2.0488072081e-6 4.5158834357e-4
1.3123349046e-2 -1.9987059339e-2 -1.9779089163e-3
-3.3212194441e-4 8.4631174708e-5 3.7151808949e-6
1.6292978973e-4 8.4358623408e-4 9.6503948092e-4
1.4373954283e-3 8.7366461570e-4 -1.7111186604e-3
-6.6177490443e-5 9.5166087470e-4 -7.7691122133e-4
-2.5561795989e-2 -1.3951304712e-2 1.4320581565e-2
-2.4122536492e-5 1.0612902998e-3 2.9530640310e-4
-2.4885804428e-3 -1.5744361725e-2 -1.1104987964e-2
7.8816796190e-5 6.8253552830e-4 -5.7452215755e-4
2.0332493953e-3 1.1645464625e-3 2.0045872257e-3
9.7515944013e-4 1.3918637432e-3 -1.4697289120e-4
2.5108380170e-2 -2.0314414235e-2 -3.7842542204e-3
2.5079975459e-2 -2.0436379647e-2 3.7799731538e-3
2.0243627828e-2 -3.0560124208e-2 -3.0510544099e-3
-1.3007853866e-3 -7.3081576898e-4 -1.9605018547e-4
9.3509317717e-5 9.5249847431e-4 5.5385932542e-4
-6.7691788858e-6 1.6802697752e-3 7.5721356243e-8
8.9585973522e-4 1.8800224418e-4 -2.6762585951e-3
-1.3502712134e-3 1.2680578495e-4 8.2439554431e-4
2.9433335265e-5 -5.7288229746e-4 -3.6032082992e-4
-3.6361533966e-2 -1.9924408485e-2 1.8905702773e-2
4.9006209815e-5 -2.8976293780e-4 -3.5722275907e-4
-3.8520537879e-3 -2.2868422440e-2 -1.7189322160e-2
3.7783801755e-2 -3.3341005716e-2 5.6946529520e-3
3.6149013050e-2 -3.2061115798e-2 -5.4482628617e-3
-1.0699206085e-3 -2.4607188453e-3 1.6125498940e-4
4.8085041698e-4 -1.7741368901e-3 -1.1889329202e-3
3.2718375531e-3 6.8908331224e-4 3.0265266441e-3
0.0000000000e0 0.0000000000e0 -2.9153619104e-3
1.6994398966e-3 1.0408926277e-3 -9.7850703300e-4
-8.0235399951e-4 1.5047909764e-3 5.5243379982e-4
-8.4422512533e-5 7.3484584817e-4 -7.2463483922e-4
-6.5701471771e-4 7.0726856229e-5 -9.8096311683e-4
-2.0651775655e-2 -1.1037510208e-2 -1.4782505627e-2
-3.4178794241e-2 -1.6814062386e-2 1.5807630383e-2
-4.1133730382e-6 -7.7008822696e-4 8.8226203660e-4
-6.0191287346e-3 3.4810509582e-3 -8.8383156217e-4
2.9455824383e-4 2.0687033889e-4 1.0285129487e-3
7.8683848219e-7 4.0014343086e-4 1.5816280882e-3
-1.0519401350e-6 -5.3495977153e-4 2.3891576292e-3
3.5190861064e-4 -2.0634093683e-4 1.4914695351e-3
3.1682015456e-3 1.4616986777e-3 6.5565389715e-3
-4.4941948024e-5 7.3508717663e-4 4.1482064653e-3
-2.1673993192e-3 -1.3067200361e-3 1.1237401998e-3
-1.6295299541e-3 -9.5687639419e-4 1.4439403996e-3
8.5092114228e-5 -1.1218589270e-3 6.4454282017e-3
-7.1103407811e-4 3.4157080424e-4 2.6436777792e-3
-1.3447601458e-3 5.8388026108e-4 -1.3705239278e-3
0.0000000000e0 0.0000000000e0 -2.7612474022e-3
-3.7746648415e-3 -5.9876538057e-3 -2.9478256173e-3
0.0000000000e0 0.0000000000e0 1.1603992704e-4
-2.3129276941e-2 -1.2361631009e-2 -1.3442122707e-2
3.6757730158e-4 4.1706536967e-3 -5.2699949901e-3
4.3234135979e-3 -1.2335711633e-3 -1.8325764711e-2
-2.4039932794e-5 -4.6101430082e-4 -2.1614112035e-3
1.2554041168e-3 -5.1784301017e-3 3.1141745835e-3
0.0000000000e0 0.0000000000e0 2.4983538402e-3
1.1960536491e-3 1.9371218594e-3 7.0540788493e-3
-1.1259750148e-4 6.9638032658e-4 -1.9285008021e-3
1.8286105212e-2 -5.6244198558e-4 2.0677267303e-2
-4.5811968076e-4 1.3958704602e-3 4.3087465404e-4
0.0000000000e0 0.0000000000e0 -3.9253827347e-4
2.4116508620e-4 2.1206583307e-3 -1.1069895579e-3
0.0000000000e0 0.0000000000e0 1.3317600281e-3
4.4532472866e-3 2.0545743624e-3 6.2497827555e-3
9.2982108908e-4 -1.2620325370e-3 -1.6127800481e-3
0.0000000000e0 0.0000000000e0 9.9362057846e-4
4.4021106329e-3 3.9432821093e-2 4.1418907726e-3
1.0026734370e-3 5.4756119360e-5 7.6879814628e-5
1.1199681076e-2 -1.0372542694e-2 -1.3553618197e-2
1.6121553748e-2 -1.7153063844e-2 1.9214158484e-2
7.5547137346e-5 2.8250052709e-4 9.4285166641e-4
2.5589702076e-3 4.1444939617e-3 5.1849570244e-3
1.9078415303e-18 -4.4888170397e-18 -2.7276822134e-3
-2.0830829371e-17 -9.7077497455e-19 2.1155101261e-3
1.9666336834e-3 -1.1485236403e-3 -9.1192389429e-5
3.9629654258e-4 1.0140352876e-3 -7.0875639844e-4
6.9022541954e-4 -7.4301948947e-5 9.9768703560e-4
7.0644780098e-4 -6.1491919386e-3 1.2274907118e-3
-2.4607578626e-2 -1.1972906396e-2 1.2256848246e-2
-2.6999756203e-2 -1.4430240270e-2 -2.0422215159e-2
3.3597398423e-6 6.2899622140e-4 6.1552210532e-4
-8.3176640479e-3 4.8103660314e-3 -7.9164902554e-4
6.0137383552e-4 4.2234909991e-4 -6.5043536319e-4
-1.7021737502e-8 -8.6563336651e-6 6.0850864793e-4
-2.7458658299e-6 -1.3963986240e-3 -2.3786299660e-4
-7.1761697303e-4 4.2077333155e-4 -1.8514395511e-3
-2.8547345430e-3 -1.3170758384e-3 -3.0156512699e-3
9.8641104548e-5 -1.6134105047e-3 -3.0479175346e-3
4.1377069334e-4 2.4946139391e-4 -2.5215488259e-3
9.9347545569e-4 5.8337878929e-4 -1.6080894198e-3
-1.1699226637e-4 1.5424322172e-3 2.7231699201e-3
-4.5202692016e-3 2.1714739618e-3 -3.8332445493e-5
2.8907755699e-3 -1.2551433799e-3 1.5581475478e-3
4.5505960956e-18 2.3618396026e-18 5.4974066347e-5
1.5913010834e-3 -2.4625807188e-3 -9.0152399442e-4
1.2491836101e-17 2.0215268484e-18 -5.0436591521e-4
-3.4843754828e-2 -1.8622529415e-2 -2.0600626593e-2
9.9119397315e-5 1.1246414810e-3 -5.1868213263e-3
5.3145126075e-3 -1.5163549244e-3 -2.5374445096e-2
2.4301489536e-4 4.6603018001e-3 -2.1476464570e-3
6.7803274272e-4 -3.9614175248e-4 -2.1476633927e-3
1.4547777785e-3 2.3561500250e-3 4.3548868989e-3
-5.2564115006e-18 9.3171320227e-18 4.2043989924e-4
9.5214666724e-5 -5.8887293091e-4 1.1605130779e-3
9.4622870899e-3 -2.9103997145e-4 1.6188377327e-2
-8.9986824235e-4 2.7418588423e-3 4.3100389429e-4
2.3575869529e-18 -1.5436256671e-18 -2.6177193510e-3
-7.9086167807e-5 2.3568002502e-3 5.9978456767e-4
-1.7748746744e-17 -3.8342317866e-17 2.1495321177e-3
4.2731958744e-3 1.9715048647e-3 1.8876961012e-3
1.0566427173e-3 3.0545819580e-4 5.2211984832e-5
1.3578709918e-17 -7.5757192693e-18 -2.1504790948e-4
7.1719576490e-3 5.9865079772e-2 7.4365515885e-3
-3.5085706724e-4 -1.3135836922e-4 -9.6941409096e-4
1.1377811910e-2 -1.1770526539e-2 1.3002095320e-2
1.5504362777e-2 -1.5242568725e-2 -2.0826395455e-2
3.4361734852e-4 -8.7957927668e-4 -9.0086810942e-4
6.0351323196e-4 9.7744668469e-4 5.3170582940e-3
-2.2346222057e-3 4.0632428773e-3 -1.3141055699e-3
2.0916427539e-3 -2.4197033916e-3 5.5805876233e-4
-5.3658640424e-4 -1.2839022220e-3 2.2546823146e-3
2.0235744590e-3 -1.4786504809e-4 -2.2338957932e-3
-1.5345740745e-2 -1.0325262896e-1 1.5791783540e-2
-1.0795488229e-2 -7.1817299908e-2 1.0989457126e-2
4.3665508097e-3 2.5651128171e-3 -5.8116536836e-3
-2.5134109366e-3 6.0125817689e-3 -1.6180903184e-3
7.7360575220e-4 -2.9305346853e-3 1.7066794941e-3
1.1802543543e-3 6.1119846214e-3 -1.8176643817e-3
7.5069079755e-5 -1.1595696606e-3 -2.6780744257e-4
3.2236574955e-3 5.3485331408e-4 1.6365069128e-3
-1.1862744933e-3 4.5370146463e-4 6.0154016619e-4
-1.9764363014e-4 3.2020148174e-4 -1.4559834346e-3
4.2145551687e-3 -2.3978886983e-3 -2.0083792806e-4
-4.9083728734e-3 1.3499979432e-3 1.2688004668e-3
-2.3065252764e-3 -3.8823726487e-3 -7.6827335399e-3
-6.6337431962e-3 -6.3404244292e-3 -9.6813034428e-3
8.7420749714e-3 -3.8609819018e-3 3.9772487103e-3
1.5880028089e-5 2.1949963156e-3 -2.6435004570e-3
7.2169365715e-4 -3.1411991540e-3 -2.2002717939e-3
3.8850116667e-3 -4.3352406159e-3 -1.1129363193e-3
VECTORS E_imag double
0.0000000000e0 0.0000000000e0 0.0000000000e0
0.0000000000e0 0.0000000000e0 0.0000000000e0
0.0000000000e0 0.0000000000e0 0.0000000000e0
0.0000000000e0 0.0000000000e0 0.0000000000e0
0.0000000000e0 0.0000000000e0 0.0000000000e0
0.0000000000e0 0.0000000000e0 0.0000000000e0
0.0000000000e0 0.0000000000e0 0.0000000000e0
0.0000000000e0 0.0000000000e0 0.0000000000e0
0.0000000000e0 0.0000000000e0 0.0000000000e0
0.0000000000e0 0.0000000000e0 0.0000000000e0
0.0000000000e0 0.0000000000e0 0.0000000000e0
0.0000000000e0 0.0000000000e0 0.0000000000e0
0.0000000000e0 0.0000000000e0 0.0000000000e0
0.0000000000e0 0.0000000000e0 0.0000000000e0
0.0000000000e0 0.0000000000e0 0.0000000000e0
0.0000000000e0 0.0000000000e0 0.0000000000e0
0.0000000000e0 0.0000000000e0 0.0000000000e0
0.0000000000e0 0.0000000000e0 0.0000000000e0
0.0000000000e0 0.0000000000e0 0.0000000000e0
0.0000000000e0 0.0000000000e0 0.0000000000e0
0.0000000000e0 0.0000000000e0 0.0000000000e0
0.0000000000e0 0.0000000000e0 0.0000000000e0
0.0000000000e0 0.0000000000e0 0.0000000000e0
0.0000000000e0 0.0000000000e0 0.0000000000e0
0.0000000000e0 0.0000000000e0 0.0000000000e0
0.0000000000e0 0.0000000000e0 0.0000000000e0
0.0000000000e0 0.0000000000e0 0.0000000000e0
0.0000000000e0 0.0000000000e0 0.0000000000e0
0.0000000000e0 0.0000000000e0 0.0000000000e0
0.0000000000e0 0.0000000000e0 0.0000000000e0
0.0000000000e0 0.0000000000e0 0.0000000000e0
0.0000000000e0 0.0000000000e0 0.0000000000e0
0.0000000000e0 0.0000000000e0 0.0000000000e0
0.0000000000e0 0.0000000000e0 0.0000000000e0
0.0000000000e0 0.0000000000e0 0.0000000000e0
0.0000000000e0 0.0000000000e0 0.0000000000e0
0.0000000000e0 0.0000000000e0 0.0000000000e0
0.0000000000e0 0.0000000000e0 0.0000000000e0
0.0000000000e0 0.0000000000e0 0.0000000000e0
0.0000000000e0 0.0000000000e0 0.0000000000e0
0.0000000000e0 0.0000000000e0 0.0000000000e0
0.0000000000e0 0.0000000000e0 0.0000000000e0
0.0000000000e0 0.0000000000e0 0.0000000000e0
0.0000000000e0 0.0000000000e0 0.0000000000e0
0.0000000000e0 0.0000000000e0 0.0000000000e0
0.0000000000e0 0.0000000000e0 0.0000000000e0
0.0000000000e0 0.0000000000e0 0.0000000000e0
0.0000000000e0 0.0000000000e0 0.0000000000e0
0.0000000000e0 0.0000000000e0 0.0000000000e0
0.0000000000e0 0.0000000000e0 0.0000000000e0
0.0000000000e0 0.0000000000e0 0.0000000000e0
0.0000000000e0 0.0000000000e0 0.0000000000e0
0.0000000000e0 0.0000000000e0 0.0000000000e0
0.0000000000e0 0.0000000000e0 0.0000000000e0
0.0000000000e0 0.0000000000e0 0.0000000000e0
0.0000000000e0 0.0000000000e0 0.0000000000e0
0.0000000000e0 0.0000000000e0 0.0000000000e0
0.0000000000e0 0.0000000000e0 0.0000000000e0
0.0000000000e0 0.0000000000e0 0.0000000000e0
0.0000000000e0 0.0000000000e0 0.0000000000e0
0.0000000000e0 0.0000000000e0 0.0000000000e0
0.0000000000e0 0.0000000000e0 0.0000000000e0
0.0000000000e0 0.0000000000e0 0.0000000000e0
0.0000000000e0 0.0000000000e0 0.0000000000e0
0.0000000000e0 0.0000000000e0 0.0000000000e0
0.0000000000e0 0.0000000000e0 0.0000000000e0
0.0000000000e0 0.0000000000e0 0.0000000000e0
0.0000000000e0 0.0000000000e0 0.0000000000e0
0.0000000000e0 0.0000000000e0 0.0000000000e0
0.0000000000e0 0.0000000000e0 0.0000000000e0
0.0000000000e0 0.0000000000e0 0.0000000000e0
0.0000000000e0 0.0000000000e0 0.0000000000e0
0.0000000000e0 0.0000000000e0 0.0000000000e0
0.0000000000e0 0.0000000000e0 0.0000000000e0
0.0000000000e0 0.0000000000e0 0.0000000000e0
0.0000000000e0 0.0000000000e0 0.0000000000e0
0.0000000000e0 0.0000000000e0 0.0000000000e0
0.0000000000e0 0.0000000000e0 0.0000000000e0
0.0000000000e0 0.0000000000e0 0.0000000000e0
0.0000000000e0 0.0000000000e0 0.0000000000e0
0.0000000000e0 0.0000000000e0 0.0000000000e0
0.0000000000e0 0.0000000000e0 0.0000000000e0
0.0000000000e0 0.0000000000e0 0.0000000000e0
0.0000000000e0 0.0000000000e0 0.0000000000e0
0.0000000000e0 0.0000000000e0 0.0000000000e0
0.0000000000e0 0.0000000000e0 0.0000000000e0
0.0000000000e0 0.0000000000e0 0.0000000000e0
0.0000000000e0 0.0000000000e0 0.0000000000e0
0.0000000000e0 0.0000000000e0 0.0000000000e0
0.0000000000e0 0.0000000000e0 0.0000000000e0
0.0000000000e0 0.0000000000e0 0.0000000000e0
0.0000000000e0 0.0000000000e0 0.0000000000e0
0.0000000000e0 0.0000000000e0 0.0000000000e0
0.0000000000e0 0.0000000000e0 0.0000000000e0
0.0000000000e0 0.0000000000e0 0.0000000000e0
0.0000000000e0 0.0000000000e0 0.0000000000e0
0.0000000000e0 0.0000000000e0 0.0000000000e0
0.0000000000e0 0.0000000000e0 0.0000000000e0
0.0000000000e0 0.0000000000e0 0.0000000000e0
0.0000000000e0 0.0000000000e0 0.0000000000e0
0.0000000000e0 0.0000000000e0 0.0000000000e0
0.0000000000e0 0.0000000000e0 0.0000000000e0
0.0000000000e0 0.0000000000e0 0.0000000000e0
0.0000000000e0 0.0000000000e0 0.0000000000e0
0.0000000000e0 0.0000000000e0 0.0000000000e0
0.0000000000e0 0.0000000000e0 0.0000000000e0
0.0000000000e0 0.0000000000e0 0.0000000000e0
0.0000000000e0 0.0000000000e0 0.0000000000e0
0.0000000000e0 0.0000000000e0 0.0000000000e0
0.0000000000e0 0.0000000000e0 0.0000000000e0
0.0000000000e0 0.0000000000e0 0.0000000000e0
0.0000000000e0 0.0000000000e0 0.0000000000e0
0.0000000000e0 0.0000000000e0 0.0000000000e0
0.0000000000e0 0.0000000000e0 0.0000000000e0
0.0000000000e0 0.0000000000e0 0.0000000000e0
0.0000000000e0 0.0000000000e0 0.0000000000e0
0.0000000000e0 0.0000000000e0 0.0000000000e0
0.0000000000e0 0.0000000000e0 0.0000000000e0
0.0000000000e0 0.0000000000e0 0.0000000000e0
0.0000000000e0 0.0000000000e0 0.0000000000e0
0.0000000000e0 0.0000000000e0 0.0000000000e0
0.0000000000e0 0.0000000000e0 0.0000000000e0
0.0000000000e0 0.0000000000e0 0.0000000000e0
0.0000000000e0 0.0000000000e0 0.0000000000e0
0.0000000000e0 0.0000000000e0 0.0000000000e0
0.0000000000e0 0.0000000000e0 0.0000000000e0
0.0000000000e0 0.0000000000e0 0.0000000000e0
0.0000000000e0 0.0000000000e0 0.0000000000e0
0.0000000000e0 0.0000000000e0 0.0000000000e0
0.0000000000e0 0.0000000000e0 0.0000000000e0
0.0000000000e0 0.0000000000e0 0.0000000000e0
0.0000000000e0 0.0000000000e0 0.0000000000e0
0.0000000000e0 0.0000000000e0 0.0000000000e0
0.0000000000e0 0.0000000000e0 0.0000000000e0
0.0000000000e0 0.0000000000e0 0.0000000000e0
0.0000000000e0 0.0000000000e0 0.0000000000e0
0.0000000000e0 0.0000000000e0 0.0000000000e0
0.0000000000e0 0.0000000000e0 0.0000000000e0
0.0000000000e0 0.0000000000e0 0.0000000000e0
0.0000000000e0 0.0000000000e0 0.0000000000e0
0.0000000000e0 0.0000000000e0 0.0000000000e0
0.0000000000e0 0.0000000000e0 0.0000000000e0
0.0000000000e0 0.0000000000e0 0.0000000000e0
0.0000000000e0 0.0000000000e0 0.0000000000e0
0.0000000000e0 0.0000000000e0 0.0000000000e0
0.0000000000e0 0.0000000000e0 0.0000000000e0
0.0000000000e0 0.0000000000e0 0.0000000000e0
0.0000000000e0 0.0000000000e0 0.0000000000e0
0.0000000000e0 0.0000000000e0 0.0000000000e0
0.0000000000e0 0.0000000000e0 0.0000000000e0
0.0000000000e0 0.0000000000e0 0.0000000000e0
0.0000000000e0 0.0000000000e0 0.0000000000e0
0.0000000000e0 0.0000000000e0 0.0000000000e0
0.0000000000e0 0.0000000000e0 0.0000000000e0
0.0000000000e0 0.0000000000e0 0.0000000000e0
0.0000000000e0 0.0000000000e0 0.0000000000e0
0.0000000000e0 0.0000000000e0 0.0000000000e0
0.0000000000e0 0.0000000000e0 0.0000000000e0
0.0000000000e0 0.0000000000e0 0.0000000000e0
0.0000000000e0 0.0000000000e0 0.0000000000e0
0.0000000000e0 0.0000000000e0 0.0000000000e0
0.0000000000e0 0.0000000000e0 0.0000000000e0
0.0000000000e0 0.0000000000e0 0.0000000000e0
0.0000000000e0 0.0000000000e0 0.0000000000e0
0.0000000000e0 0.0000000000e0 0.0000000000e0
0.0000000000e0 0.0000000000e0 0.0000000000e0
0.0000000000e0 0.0000000000e0 0.0000000000e0
0.0000000000e0 0.0000000000e0 0.0000000000e0
0.0000000000e0 0.0000000000e0 0.0000000000e0
0.0000000000e0 0.0000000000e0 0.0000000000e0
0.0000000000e0 0.0000000000e0 0.0000000000e0
0.0000000000e0 0.0000000000e0 0.0000000000e0
0.0000000000e0 0.0000000000e0 0.0000000000e0
0.0000000000e0 0.0000000000e0 0.0000000000e0
0.0000000000e0 0.0000000000e0 0.0000000000e0
0.0000000000e0 0.0000000000e0 0.0000000000e0
0.0000000000e0 0.0000000000e0 0.0000000000e0