# vtk DataFile Version 3.0
RapidFEM Mode 2 f=11.6231GHz
ASCII
DATASET UNSTRUCTURED_GRID
POINTS 242 double
0.0000000000e0 0.0000000000e0 1.0160000000e-2
0.0000000000e0 0.0000000000e0 0.0000000000e0
0.0000000000e0 3.0000000000e-2 1.0160000000e-2
0.0000000000e0 3.0000000000e-2 0.0000000000e0
2.2860000000e-2 0.0000000000e0 1.0160000000e-2
2.2860000000e-2 0.0000000000e0 0.0000000000e0
2.2860000000e-2 3.0000000000e-2 1.0160000000e-2
2.2860000000e-2 3.0000000000e-2 0.0000000000e0
0.0000000000e0 0.0000000000e0 3.3866666667e-3
0.0000000000e0 0.0000000000e0 6.7733333333e-3
0.0000000000e0 3.7500000000e-3 1.0160000000e-2
0.0000000000e0 7.5000000000e-3 1.0160000000e-2
0.0000000000e0 1.1250000000e-2 1.0160000000e-2
0.0000000000e0 1.5000000000e-2 1.0160000000e-2
0.0000000000e0 1.8750000000e-2 1.0160000000e-2
0.0000000000e0 2.2500000000e-2 1.0160000000e-2
0.0000000000e0 2.6250000000e-2 1.0160000000e-2
0.0000000000e0 3.0000000000e-2 3.3866666667e-3
0.0000000000e0 3.0000000000e-2 6.7733333333e-3
0.0000000000e0 3.7500000000e-3 0.0000000000e0
0.0000000000e0 7.5000000000e-3 0.0000000000e0
0.0000000000e0 1.1250000000e-2 0.0000000000e0
0.0000000000e0 1.5000000000e-2 0.0000000000e0
0.0000000000e0 1.8750000000e-2 0.0000000000e0
0.0000000000e0 2.2500000000e-2 0.0000000000e0
0.0000000000e0 2.6250000000e-2 0.0000000000e0
2.2860000000e-2 0.0000000000e0 3.3866666667e-3
2.2860000000e-2 0.0000000000e0 6.7733333333e-3
2.2860000000e-2 3.7500000000e-3 1.0160000000e-2
2.2860000000e-2 7.5000000000e-3 1.0160000000e-2
2.2860000000e-2 1.1250000000e-2 1.0160000000e-2
2.2860000000e-2 1.5000000000e-2 1.0160000000e-2
2.2860000000e-2 1.8750000000e-2 1.0160000000e-2
2.2860000000e-2 2.2500000000e-2 1.0160000000e-2
2.2860000000e-2 2.6250000000e-2 1.0160000000e-2
2.2860000000e-2 3.0000000000e-2 3.3866666667e-3
2.2860000000e-2 3.0000000000e-2 6.7733333333e-3
2.2860000000e-2 3.7500000000e-3 0.0000000000e0
2.2860000000e-2 7.5000000000e-3 0.0000000000e0
2.2860000000e-2 1.1250000000e-2 0.0000000000e0
2.2860000000e-2 1.5000000000e-2 0.0000000000e0
2.2860000000e-2 1.8750000000e-2 0.0000000000e0
2.2860000000e-2 2.2500000000e-2 0.0000000000e0
2.2860000000e-2 2.6250000000e-2 0.0000000000e0
3.8100000000e-3 0.0000000000e0 0.0000000000e0
7.6200000000e-3 0.0000000000e0 0.0000000000e0
1.1430000000e-2 0.0000000000e0 0.0000000000e0
1.5240000000e-2 0.0000000000e0 0.0000000000e0
1.9050000000e-2 0.0000000000e0 0.0000000000e0
3.8100000000e-3 0.0000000000e0 1.0160000000e-2
7.6200000000e-3 0.0000000000e0 1.0160000000e-2
1.1430000000e-2 0.0000000000e0 1.0160000000e-2
1.5240000000e-2 0.0000000000e0 1.0160000000e-2
1.9050000000e-2 0.0000000000e0 1.0160000000e-2
3.8100000000e-3 3.0000000000e-2 0.0000000000e0
7.6200000000e-3 3.0000000000e-2 0.0000000000e0
1.1430000000e-2 3.0000000000e-2 0.0000000000e0
1.5240000000e-2 3.0000000000e-2 0.0000000000e0
1.9050000000e-2 3.0000000000e-2 0.0000000000e0
3.8100000000e-3 3.0000000000e-2 1.0160000000e-2
7.6200000000e-3 3.0000000000e-2 1.0160000000e-2
1.1430000000e-2 3.0000000000e-2 1.0160000000e-2
1.5240000000e-2 3.0000000000e-2 1.0160000000e-2
1.9050000000e-2 3.0000000000e-2 1.0160000000e-2
0.0000000000e0 2.7067060633e-2 5.0800000000e-3
0.0000000000e0 2.9329393675e-3 5.0800000000e-3
0.0000000000e0 2.0607895740e-2 3.4149433368e-3
0.0000000000e0 1.3125000000e-2 3.2475952642e-3
0.0000000000e0 1.6875000000e-2 6.9124047358e-3
0.0000000000e0 9.3921042596e-3 6.7450566632e-3
0.0000000000e0 2.0575689701e-2 7.5387577184e-3
0.0000000000e0 1.6874109524e-2 3.0751560233e-3
0.0000000000e0 1.3125890476e-2 7.0848439767e-3
0.0000000000e0 9.4243102990e-3 2.6212422816e-3
0.0000000000e0 5.3249758464e-3 7.1684469476e-3
0.0000000000e0 2.4675024154e-2 2.9915530524e-3
0.0000000000e0 2.4145552764e-2 7.0464405194e-3
0.0000000000e0 5.8544472356e-3 3.1135594806e-3
0.0000000000e0 2.7479635784e-2 7.7520655419e-3
0.0000000000e0 2.7479635784e-2 2.4079344581e-3
0.0000000000e0 2.5203642158e-3 7.7520655419e-3
0.0000000000e0 2.5203642158e-3 2.4079344581e-3
2.2860000000e-2 2.7067060633e-2 5.0800000000e-3
2.2860000000e-2 2.9329393675e-3 5.0800000000e-3
2.2860000000e-2 2.0607895740e-2 3.4149433368e-3
2.2860000000e-2 1.3125000000e-2 3.2475952642e-3
2.2860000000e-2 1.6875000000e-2 6.9124047358e-3
2.2860000000e-2 9.3921042596e-3 6.7450566632e-3
2.2860000000e-2 2.0575689701e-2 7.5387577184e-3
2.2860000000e-2 1.6874109524e-2 3.0751560233e-3
2.2860000000e-2 1.3125890476e-2 7.0848439767e-3
2.2860000000e-2 9.4243102990e-3 2.6212422816e-3
2.2860000000e-2 5.3249758464e-3 7.1684469476e-3
2.2860000000e-2 2.4675024154e-2 2.9915530524e-3
2.2860000000e-2 2.4145552764e-2 7.0464405194e-3
2.2860000000e-2 5.8544472356e-3 3.1135594806e-3
2.2860000000e-2 2.7479635784e-2 2.4079344581e-3
2.2860000000e-2 2.7479635784e-2 7.7520655419e-3
2.2860000000e-2 2.5203642158e-3 7.7520655419e-3
2.2860000000e-2 2.5203642158e-3 2.4079344581e-3
2.9329393675e-3 0.0000000000e0 5.0800000000e-3
1.9927060633e-2 0.0000000000e0 5.0800000000e-3
9.5250000000e-3 0.0000000000e0 3.2995567884e-3
1.3335000000e-2 0.0000000000e0 6.8604432116e-3
1.3288060349e-2 0.0000000000e0 2.6642308317e-3
9.5719396507e-3 0.0000000000e0 7.4957691683e-3
1.7465697863e-2 0.0000000000e0 7.1978653226e-3
5.3943021370e-3 0.0000000000e0 2.9621346774e-3
1.6910301746e-2 0.0000000000e0 3.1611541587e-3
5.9496982536e-3 0.0000000000e0 6.9988458413e-3
2.5281752011e-3 0.0000000000e0 7.7655945654e-3
2.5281752011e-3 0.0000000000e0 2.3944054346e-3
2.0331824799e-2 0.0000000000e0 7.7655945654e-3
2.0331824799e-2 0.0000000000e0 2.3944054346e-3
2.9329393675e-3 3.0000000000e-2 5.0800000000e-3
1.9927060633e-2 3.0000000000e-2 5.0800000000e-3
9.5250000000e-3 3.0000000000e-2 3.2995567884e-3
1.3335000000e-2 3.0000000000e-2 6.8604432116e-3
1.3288060349e-2 3.0000000000e-2 2.6642308317e-3
9.5719396507e-3 3.0000000000e-2 7.4957691683e-3
1.7465697863e-2 3.0000000000e-2 7.1978653226e-3
5.3943021370e-3 3.0000000000e-2 2.9621346774e-3
1.6910301746e-2 3.0000000000e-2 3.1611541587e-3
5.9496982536e-3 3.0000000000e-2 6.9988458413e-3
2.5281752011e-3 3.0000000000e-2 7.7655945654e-3
2.5281752011e-3 3.0000000000e-2 2.3944054346e-3
2.0331824799e-2 3.0000000000e-2 7.7655945654e-3
2.0331824799e-2 3.0000000000e-2 2.3944054346e-3
3.0032597289e-3 1.7053382250e-2 0.0000000000e0
1.9374906205e-2 1.3140168730e-2 0.0000000000e0
1.3292324977e-2 2.6390097520e-2 0.0000000000e0
9.5349916220e-3 3.2987589966e-3 0.0000000000e0
1.9282143073e-2 2.0260904772e-2 0.0000000000e0
3.3990631681e-3 9.0777329865e-3 0.0000000000e0
1.6993391798e-2 3.2075459795e-3 0.0000000000e0
5.5706840137e-3 2.6774551281e-2 0.0000000000e0
1.3312591326e-2 3.2785812089e-3 0.0000000000e0
1.1435229781e-2 6.5801018339e-3 0.0000000000e0
7.0221190436e-3 6.8767844285e-3 0.0000000000e0
9.5482210217e-3 9.8627330247e-3 0.0000000000e0
1.3329378341e-2 9.8552977906e-3 0.0000000000e0
1.1442663086e-2 1.3123500598e-2 0.0000000000e0
7.7150351477e-3 1.3129967350e-2 0.0000000000e0
9.6645250455e-3 1.6332769384e-2 0.0000000000e0
1.3347048630e-2 1.6371376085e-2 0.0000000000e0
1.1441262234e-2 1.9616869481e-2 0.0000000000e0
8.0656326056e-3 1.9396484399e-2 0.0000000000e0
9.7574291791e-3 2.2918228652e-2 0.0000000000e0
1.5170836301e-2 1.9788578707e-2 0.0000000000e0
1.7106992305e-2 1.6592316327e-2 0.0000000000e0
1.6701906859e-2 2.3314854219e-2 0.0000000000e0
5.6802354321e-3 3.1827773814e-3 0.0000000000e0
1.5200355414e-2 6.5624135570e-3 0.0000000000e0
1.7104311409e-2 9.8670221071e-3 0.0000000000e0
1.9330824752e-2 6.1670243647e-3 0.0000000000e0
9.2384056136e-3 2.6583295217e-2 0.0000000000e0
1.5284216663e-2 1.3158280273e-2 0.0000000000e0
3.8333502594e-3 1.3112028103e-2 0.0000000000e0
2.9169526120e-3 2.0658918312e-2 0.0000000000e0
1.7211032325e-2 2.6909153486e-2 0.0000000000e0
3.0282716898e-3 2.4278122460e-2 0.0000000000e0
3.1513738996e-3 5.6064197490e-3 0.0000000000e0
1.3272751910e-2 2.2405725716e-2 0.0000000000e0
1.9926363821e-2 2.4391666377e-2 0.0000000000e0
6.1886758944e-3 2.2696242807e-2 0.0000000000e0
6.3313909733e-3 1.6128987380e-2 0.0000000000e0
2.0270458824e-2 1.6842117338e-2 0.0000000000e0
6.3399109015e-3 1.0257232482e-2 0.0000000000e0
2.0306008473e-2 9.5848430404e-3 0.0000000000e0
2.8124266069e-3 2.7969454326e-3 0.0000000000e0
2.0060936205e-2 2.7833688157e-3 0.0000000000e0
2.7164751199e-3 2.7280121283e-2 0.0000000000e0
2.0259599042e-2 2.7402075216e-2 0.0000000000e0
5.3011823629e-3 1.9186803030e-2 0.0000000000e0
3.4850937950e-3 1.6859831270e-2 1.0160000000e-2
1.9856740271e-2 1.2946617750e-2 1.0160000000e-2
1.3325008378e-2 2.6701241003e-2 1.0160000000e-2
9.5676750235e-3 3.6099024795e-3 1.0160000000e-2
1.9460936832e-2 2.0922267013e-2 1.0160000000e-2
3.5778569271e-3 9.7390952284e-3 1.0160000000e-2
1.7289315986e-2 3.2254487189e-3 1.0160000000e-2
5.8666082021e-3 2.6792454020e-2 1.0160000000e-2
9.5474086744e-3 2.6721418791e-2 1.0160000000e-2
1.1424770219e-2 2.3419898166e-2 1.0160000000e-2
1.5837880956e-2 2.3123215571e-2 1.0160000000e-2
1.3311778978e-2 2.0137266975e-2 1.0160000000e-2
9.5306216592e-3 2.0144702209e-2 1.0160000000e-2
1.1417336914e-2 1.6876499402e-2 1.0160000000e-2
1.5144964852e-2 1.6870032650e-2 1.0160000000e-2
1.3195474954e-2 1.3667230616e-2 1.0160000000e-2
9.5129513703e-3 1.3628623915e-2 1.0160000000e-2
1.1418737766e-2 1.0383130519e-2 1.0160000000e-2
1.4794367394e-2 1.0603515601e-2 1.0160000000e-2
1.3102570821e-2 7.0817713478e-3 1.0160000000e-2
7.6891636986e-3 1.0211421293e-2 1.0160000000e-2
5.7530076952e-3 1.3407683673e-2 1.0160000000e-2
6.1580931408e-3 6.6851457810e-3 1.0160000000e-2
1.7179764568e-2 2.6817222619e-2 1.0160000000e-2
7.6596445855e-3 2.3437586443e-2 1.0160000000e-2
5.7556885912e-3 2.0132977893e-2 1.0160000000e-2
3.5291752478e-3 2.3832975635e-2 1.0160000000e-2
1.3621594386e-2 3.4167047832e-3 1.0160000000e-2
7.5757833375e-3 1.6841719727e-2 1.0160000000e-2
1.9943047388e-2 9.3410816876e-3 1.0160000000e-2
1.9026649741e-2 1.6887971897e-2 1.0160000000e-2
5.6489676750e-3 3.0908465141e-3 1.0160000000e-2
1.9831728310e-2 5.7218775397e-3 1.0160000000e-2
1.9708626100e-2 2.4393580251e-2 1.0160000000e-2
9.5872480899e-3 7.5942742841e-3 1.0160000000e-2
[...]
POINT_DATA 242
VECTORS E_real double
0.0000000000e0 0.0000000000e0 0.0000000000e0
0.0000000000e0 0.0000000000e0 0.0000000000e0
1.3321883358e-18 -2.0472769339e-18 -4.8640448144e-18
-1.0674745964e-18 -1.2433481884e-18 -1.6998388335e-18
-2.3684379412e-19 -4.2056816874e-18 4.3709409726e-18
-1.7161986381e-18 -1.0341113896e-19 1.0823954667e-19
-2.7293158359e-17 -2.5569970968e-17 1.1066885420e-16
-1.0000938719e-17 1.5613781895e-17 5.9463754242e-17
0.0000000000e0 0.0000000000e0 0.0000000000e0
0.0000000000e0 0.0000000000e0 0.0000000000e0
-1.4581487381e-19 0.0000000000e0 0.0000000000e0
0.0000000000e0 0.0000000000e0 -1.0214722241e-18
1.8362643234e-18 0.0000000000e0 0.0000000000e0
3.0903272699e-18 0.0000000000e0 0.0000000000e0
-6.4634028496e-19 8.8123315015e-19 4.0428452164e-18
-2.6991409420e-18 -1.3251189825e-18 -1.7370366691e-17
6.2105881058e-18 0.0000000000e0 0.0000000000e0
-8.2689548187e-19 2.8833444814e-18 -5.5425169719e-18
-3.8632340146e-18 -1.6300618767e-18 -4.5865244889e-19
0.0000000000e0 0.0000000000e0 0.0000000000e0
0.0000000000e0 0.0000000000e0 0.0000000000e0
0.0000000000e0 0.0000000000e0 0.0000000000e0
0.0000000000e0 0.0000000000e0 0.0000000000e0
0.0000000000e0 0.0000000000e0 -1.2555544402e-17
0.0000000000e0 0.0000000000e0 -8.7426207511e-18
0.0000000000e0 0.0000000000e0 -8.0373230492e-18
0.0000000000e0 -5.7805242819e-19 0.0000000000e0
0.0000000000e0 1.8433163245e-18 0.0000000000e0
1.4776699526e-17 -1.1278045991e-17 -9.7775132922e-17
-2.0261401520e-17 -1.3620106376e-17 -1.4902977288e-16
3.1280038012e-19 8.7703688670e-32 -1.6402995462e-16
6.0070437380e-17 5.6051818561e-18 3.4544048918e-17
3.9515978508e-18 1.0351685507e-17 -2.8411874912e-17
-1.0288689483e-17 2.5415034372e-18 -4.2347682350e-16
6.6411848865e-18 7.0199877986e-31 4.7292969619e-16
3.1196541662e-18 1.6624270446e-18 -2.4764302843e-18
1.8612599054e-17 -1.8135455241e-17 -7.9620144810e-18
-7.0893087425e-20 0.0000000000e0 -1.0800243420e-34
0.0000000000e0 0.0000000000e0 2.9602197987e-17
0.0000000000e0 0.0000000000e0 -9.2905346627e-18
-1.9401350440e-17 -1.6117766699e-17 6.0580357746e-18
4.7264759859e-18 3.7136540529e-18 2.1617325612e-17
0.0000000000e0 0.0000000000e0 3.8013222725e-17
1.9185781850e-17 1.5198571673e-18 1.2460667940e-16
0.0000000000e0 0.0000000000e0 0.0000000000e0
0.0000000000e0 0.0000000000e0 0.0000000000e0
0.0000000000e0 0.0000000000e0 1.7549674945e-19
0.0000000000e0 0.0000000000e0 0.0000000000e0
0.0000000000e0 0.0000000000e0 0.0000000000e0
4.5092384412e-19 4.1181499862e-19 -2.4139828513e-19
0.0000000000e0 0.0000000000e0 0.0000000000e0
0.0000000000e0 -3.9386382614e-19 0.0000000000e0
-7.7788070721e-19 -3.6314493850e-18 2.4562370670e-17
0.0000000000e0 -2.8497913895e-18 0.0000000000e0
1.8451513194e-18 -1.0365964271e-18 2.0191999837e-17
0.0000000000e0 0.0000000000e0 2.4485256597e-17
0.0000000000e0 0.0000000000e0 -2.6090385664e-17
0.0000000000e0 0.0000000000e0 -2.4905773110e-17
0.0000000000e0 0.0000000000e0 -1.6724447642e-17
-4.6321463455e-18 -9.9700960710e-18 5.9501721603e-17
8.8085275143e-18 5.2476722392e-19 1.3297101479e-16
-4.7646242006e-18 1.9202352208e-17 -5.5378666373e-16
-4.7667405418e-18 3.2241905066e-17 -1.4555342808e-16
3.4700860002e-17 -7.1812618111e-19 8.3889776301e-16
1.9711365363e-3 -5.6168718448e-4 -8.6726231720e-5
2.7448148566e-3 1.3480708920e-3 2.0814629884e-4
2.1101905775e-4 2.4600192283e-3 -1.1825997190e-3
2.6602305238e-3 2.5756637636e-3 1.3896362723e-3
4.3505241810e-4 2.5649788277e-4 -1.5154698700e-3
8.6490146468e-4 7.2120245390e-5 6.9279411922e-4
-2.0960760068e-4 2.9761909337e-3 6.7025831117e-4
3.2295683335e-4 1.3239294791e-3 -8.9926980616e-4
3.1496752428e-3 -1.6538084413e-3 -1.1734001851e-3
7.2469931437e-4 9.8562712940e-4 2.8381984591e-4
1.4497085375e-3 -1.9259618762e-3 -4.7041187863e-4
1.3600290334e-3 -1.6029076893e-5 -1.5397687776e-4
2.1864414742e-3 -1.5602290812e-4 -1.1313446246e-3
2.0165507126e-3 1.0162122977e-4 -4.8016100024e-4
2.4335779652e-3 -1.8501210921e-3 4.5301350855e-4
-4.0012452810e-4 6.9650757195e-4 1.4373877610e-3
6.1626088956e-4 -6.0111083010e-4 6.3239686000e-4
2.3294545805e-3 1.8083271885e-3 -3.6310567887e-4
-1.5555602180e-3 -1.8287536017e-4 -2.8236519010e-5
-1.9549689985e-3 -2.5676877835e-4 -3.9645890425e-5
-9.0445372610e-4 -6.2212308856e-5 -5.9761751343e-4
-1.0265791740e-3 -1.7029211895e-4 1.0061392031e-3
-2.1628949057e-3 -1.6733142030e-3 3.4104511707e-5
-5.6153248254e-4 -2.9828141781e-3 4.6334525369e-4
-5.4524224913e-4 -1.3122512373e-3 -3.7705030075e-4
-1.6478710143e-3 6.0925036660e-19 -1.6036770012e-17
-1.7430313612e-3 3.9691712857e-5 -4.3615627914e-4
-5.9952010822e-4 -2.7859883279e-3 -9.3004805137e-4
-2.1095538681e-3 -3.7444796696e-5 -3.5969837327e-4
-1.2288092746e-3 1.5007305830e-3 -2.0988624024e-5
-1.5851279994e-3 -8.8596359759e-6 4.1861840105e-5
-2.3165234395e-3 1.2724475345e-4 9.2267007173e-4
-5.2008168115e-4 8.7198030026e-4 -1.0612608035e-3
-2.0329796828e-3 -1.0571518416e-3 6.4083086587e-4
-1.2102297563e-4 -5.7524584734e-4 -1.2829836538e-3
-2.4822171298e-3 1.7584287614e-3 -1.0075334537e-3
1.3661529103e-3 5.7810646108e-4 2.0590216818e-4
-1.3747033315e-3 -3.5145112151e-4 2.0719086013e-4
-8.9516077618e-4 -2.0687025100e-3 1.0013443163e-5
3.0260285007e-4 -2.0776611173e-3 1.7923284492e-3
-4.0547867020e-4 -5.0437075895e-4 3.0889646776e-5
-3.1346148535e-3 -5.4907325533e-4 1.3837401285e-3
4.3466238345e-3 -4.6585672214e-4 1.7449873522e-3
-3.1666060516e-5 6.7433303785e-4 3.8765369614e-4
-2.5824498665e-4 6.8936935200e-4 -1.1523868866e-3
-2.3042213758e-4 1.0530251694e-3 1.6796245221e-3
7.0537786688e-5 1.3888789449e-4 1.1194285630e-3
1.3919241707e-3 1.3344221859e-3 -2.0978632957e-4
2.9065700275e-4 -6.5018270694e-4 -4.3806887657e-5
-1.5549089771e-3 1.2912344522e-3 -2.3435087485e-4
9.7192470881e-4 4.1762001982e-4 -1.4648536291e-4
-1.5458990711e-3 -6.5533783612e-4 -2.3299293084e-4
-5.3080383963e-4 1.6409781428e-3 -3.1439717851e-3
1.4761001534e-3 5.3421031366e-4 -1.6511944426e-5
2.9496730721e-3 -6.8915275279e-4 -1.7784756003e-4
5.7065620698e-4 2.4840358862e-4 2.8530813597e-4
4.9545384888e-5 -1.4059555294e-3 -6.0653113351e-4
-4.3358712579e-3 6.9112225023e-5 -1.7343109738e-3
2.0197755045e-4 -1.9061763049e-3 -1.4722823519e-3
2.1569274063e-4 -5.8685357926e-4 9.6250265712e-4
1.9806855372e-3 -1.2132621941e-3 2.9852254716e-4
-5.9906067242e-4 7.5302439302e-4 9.0288495815e-5
-1.4702777923e-3 -1.6738187126e-3 2.2159553516e-4
3.9359530701e-4 -3.2684686986e-4 -8.2225943371e-4
-1.0899728405e-3 -2.2955971467e-4 2.9561659591e-3
0.0000000000e0 0.0000000000e0 -7.8736104603e-3
2.7134167940e-3 1.3350455929e-4 1.9664195453e-2
2.0591980430e-4 -2.5851702566e-3 -2.2024358639e-2
9.0516862017e-4 -7.8789339771e-3 1.2125194026e-2
-1.9039112044e-3 2.0495378627e-4 -1.7431227367e-2
3.1502300574e-3 1.6836661891e-3 -1.6674266553e-2
-4.9448638953e-3 1.1485106018e-3 1.2006989726e-2
-2.1144436006e-6 -3.9585714894e-4 -2.2982476065e-2
1.1312765451e-4 -6.5425271246e-5 -3.4796080583e-2
4.5962182586e-4 3.2279566051e-4 -2.8175140102e-2
-6.3582408849e-7 -3.2334569032e-4 -2.9200488389e-2
2.8064282534e-6 1.4271973921e-3 -2.9444104901e-2
8.6978666291e-4 -5.0999773647e-4 -1.3023553802e-2
-2.5768258383e-3 -1.1888583685e-3 -1.0584672242e-2
1.9664872361e-4 -3.2164594857e-3 8.6269667960e-3
3.0587048086e-4 1.8440860540e-4 7.9058748809e-3
1.8589223046e-3 1.0915778917e-3 2.6494450193e-2
-7.6806096267e-5 1.0126156287e-3 2.0008740564e-2
2.0752629771e-3 -9.9692724432e-4 2.9307140009e-2
2.8932360054e-3 -1.2562116743e-3 2.2405620491e-2
0.0000000000e0 0.0000000000e0 5.6419610492e-3
1.0977123418e-3 -5.9896231109e-3 1.9634513719e-2
0.0000000000e0 0.0000000000e0 -1.4351541401e-2
3.4504347439e-3 1.8441130363e-3 -2.8900545492e-2
-8.7624621863e-5 -9.9421795504e-4 -2.1261635954e-2
-4.4980693034e-4 1.2834045269e-4 -1.4499114096e-2
7.5795484650e-5 1.4535316160e-3 1.5869550266e-2
1.9469995507e-3 1.7300502026e-3 -1.2447144141e-2
0.0000000000e0 0.0000000000e0 -7.5516167791e-3
-8.5933273779e-4 -1.3917705381e-3 8.7103411686e-3
1.3185168957e-4 -8.1546145728e-4 1.2733346902e-2
-1.1988429852e-3 3.6873878892e-5 1.0632568153e-2
7.7779645711e-4 -2.3699114971e-3 -1.3374079294e-2
0.0000000000e0 0.0000000000e0 2.5855838211e-2
-1.5034451507e-4 1.2045396243e-3 1.0640433362e-2
0.0000000000e0 0.0000000000e0 2.0015281592e-2
6.5754290907e-3 3.0336756892e-3 8.8744076725e-3
-8.6613738228e-4 1.1755955751e-3 3.6455072295e-3
0.0000000000e0 0.0000000000e0 -1.9348040259e-2
-1.1495841768e-4 -1.3298507015e-3 -1.0656759932e-2
1.2178771693e-3 8.7780320234e-4 -6.4176757180e-3
-1.1400244765e-3 1.4262116640e-3 -6.3041489026e-3
-5.5765870268e-4 8.2328202563e-4 4.9616957385e-3
9.4098033121e-4 6.7398481096e-4 4.9654803951e-3
-9.4915240140e-4 -1.5372419673e-3 1.2764262158e-2
-3.9306451640e-19 1.0923047554e-18 8.6868907088e-3
1.1834783197e-17 -3.9954236818e-18 -4.7440775881e-3
4.9975376002e-4 1.2046139224e-3 2.1442072121e-2
-2.8420051398e-3 -1.2227261454e-3 -1.8837953512e-2
1.4175599838e-3 -1.5259865337e-4 1.6703781995e-2
-8.1549981787e-4 7.0984224156e-3 -1.2802668391e-2
5.6492463315e-3 -1.2226337831e-3 -1.2211445978e-2
-2.2104664212e-3 -1.1814018366e-3 1.5482992594e-2
2.7980514701e-6 5.2383931037e-4 2.1733494254e-2
2.1584890555e-4 -1.2483219293e-4 3.3889517615e-2
-2.1853458812e-4 -1.5347838755e-4 2.8295651577e-2
8.5990598692e-7 4.3730160587e-4 2.9728075953e-2
-1.9003055336e-6 -9.6639245931e-4 2.9112935905e-2
-1.1339378248e-3 6.6488226206e-4 1.3083133663e-2
4.5817509934e-3 2.1138615307e-3 8.6530169757e-3
-1.0905890277e-4 1.7838078777e-3 -8.6695926555e-3
7.8396321805e-4 4.7264961077e-4 -7.2650053403e-3
-1.0294884644e-3 -6.0452599059e-4 -2.6118383631e-2
-8.3278129972e-5 1.0979432628e-3 -2.0908547945e-2
-3.8247551429e-3 1.8373587573e-3 -2.9822820420e-2
-3.9469390183e-3 1.7137180870e-3 -2.2079344796e-2
9.8179179453e-18 -2.1076104198e-17 -5.5874396423e-3
-2.1575701683e-3 7.5083429855e-3 -1.9073346953e-2
-2.0069248742e-18 4.1858775817e-18 1.3983058552e-2
-2.6321625170e-3 -1.4067807600e-3 2.7998815238e-2
1.9403952362e-4 2.2016366436e-3 2.1185572540e-2
-4.0766100052e-4 1.1631523176e-4 1.4217957042e-2
-7.9439671092e-5 -1.5234162566e-3 -1.5443249768e-2
-6.3672001188e-4 -1.9901846281e-3 1.2939343306e-2
1.7509560500e-3 2.8358387114e-3 -1.0441573583e-2
5.1718750341e-17 2.1192858949e-17 5.1627460649e-3
-5.6266049317e-5 3.4798791522e-4 -1.1973956756e-2
1.2309878806e-3 -3.7862588001e-5 -1.1453840231e-2
-8.1118578445e-4 2.4716473047e-3 1.3495792291e-2
-6.4188497749e-19 4.1706418281e-18 -2.5051328123e-2
-3.8182675179e-5 2.2711803796e-4 -1.0362105113e-2
-8.2138873979e-18 -2.6711363502e-17 -2.0798901121e-2
-5.1914796487e-3 -2.3951692558e-3 -1.1044183665e-2
9.0383773939e-4 2.6128476603e-4 -3.8030633877e-3
1.3994208834e-17 -3.5647909330e-17 1.9220017379e-2
5.7810464921e-4 9.4567421530e-4 1.0815101583e-2
-1.0659940661e-3 -1.1087068389e-3 6.4088562568e-3
7.1838070352e-4 -8.1611385543e-4 -5.2957437972e-3
9.5095778383e-4 -1.1346831224e-3 5.8913116717e-3
-8.6969383492e-4 -1.2214649579e-3 -4.5739421244e-3
1.9114130173e-3 3.0957139263e-3 -1.4138960393e-2
1.4362822477e-3 3.2660225290e-3 1.9246669390e-2
5.8279731631e-4 -1.8008026688e-3 -1.9016232007e-2
1.9718136344e-4 -1.0511689734e-3 1.7339628206e-2
-8.5029687848e-4 1.8351516455e-3 -1.7314858138e-2
3.3492243010e-5 -2.2705641511e-3 1.8131097529e-2
-4.9420731017e-4 2.2311027965e-3 -1.9550030841e-2
-2.5458959161e-3 3.1951027197e-3 -1.0508625930e-2
4.4963237532e-4 -5.5777593640e-3 1.3236387476e-2
-1.0505203386e-3 3.1062176242e-3 -2.1201908605e-2
-5.6634454249e-4 -3.6411086241e-3 2.1081838201e-2
3.2493208674e-3 6.3242036853e-3 -3.5785662723e-2
-3.4300662787e-3 -5.1092750093e-3 3.5056939390e-2
1.0483603469e-2 2.9648278343e-3 -2.6011979681e-2
-8.9386507590e-3 -2.6378436769e-3 2.5539327943e-2
3.6257709475e-3 6.2040838751e-4 6.1020578351e-3
-1.5573000653e-3 -6.6846924912e-4 -4.4468223975e-3
-2.7891178467e-3 -2.4162545123e-3 -3.0875378335e-2
1.5970468947e-3 2.0519946097e-3 3.0875196875e-2
-7.4108257981e-3 -1.4609190434e-3 5.0576579999e-3
4.5233828675e-3 -1.2855852891e-3 -4.6067867034e-3
-3.5536856969e-3 4.3441310642e-4 -1.4070306765e-2
4.1579497035e-3 -1.8674130811e-3 1.5313252143e-2
VECTORS E_imag double
0.0000000000e0 0.0000000000e0 0.0000000000e0
0.0000000000e0 0.0000000000e0 0.0000000000e0
0.0000000000e0 0.0000000000e0 0.0000000000e0
0.0000000000e0 0.0000000000e0 0.0000000000e0
0.0000000000e0 0.0000000000e0 0.0000000000e0
0.0000000000e0 0.0000000000e0 0.0000000000e0
0.0000000000e0 0.0000000000e0 0.0000000000e0
0.0000000000e0 0.0000000000e0 0.0000000000e0
0.0000000000e0 0.0000000000e0 0.0000000000e0
0.0000000000e0 0.0000000000e0 0.0000000000e0
0.0000000000e0 0.0000000000e0 0.0000000000e0
0.0000000000e0 0.0000000000e0 0.0000000000e0
0.0000000000e0 0.0000000000e0 0.0000000000e0
0.0000000000e0 0.0000000000e0 0.0000000000e0
0.0000000000e0 0.0000000000e0 0.0000000000e0
0.0000000000e0 0.0000000000e0 0.0000000000e0
0.0000000000e0 0.0000000000e0 0.0000000000e0
0.0000000000e0 0.0000000000e0 0.0000000000e0
0.0000000000e0 0.0000000000e0 0.0000000000e0
0.0000000000e0 0.0000000000e0 0.0000000000e0
0.0000000000e0 0.0000000000e0 0.0000000000e0
0.0000000000e0 0.0000000000e0 0.0000000000e0
0.0000000000e0 0.0000000000e0 0.0000000000e0
0.0000000000e0 0.0000000000e0 0.0000000000e0
0.0000000000e0 0.0000000000e0 0.0000000000e0
0.0000000000e0 0.0000000000e0 0.0000000000e0
0.0000000000e0 0.0000000000e0 0.0000000000e0
0.0000000000e0 0.0000000000e0 0.0000000000e0
0.0000000000e0 0.0000000000e0 0.0000000000e0
0.0000000000e0 0.0000000000e0 0.0000000000e0
0.0000000000e0 0.0000000000e0 0.0000000000e0
0.0000000000e0 0.0000000000e0 0.0000000000e0
0.0000000000e0 0.0000000000e0 0.0000000000e0
0.0000000000e0 0.0000000000e0 0.0000000000e0
0.0000000000e0 0.0000000000e0 0.0000000000e0
0.0000000000e0 0.0000000000e0 0.0000000000e0
0.0000000000e0 0.0000000000e0 0.0000000000e0
0.0000000000e0 0.0000000000e0 0.0000000000e0
0.0000000000e0 0.0000000000e0 0.0000000000e0
0.0000000000e0 0.0000000000e0 0.0000000000e0
0.0000000000e0 0.0000000000e0 0.0000000000e0
0.0000000000e0 0.0000000000e0 0.0000000000e0
0.0000000000e0 0.0000000000e0 0.0000000000e0
0.0000000000e0 0.0000000000e0 0.0000000000e0
0.0000000000e0 0.0000000000e0 0.0000000000e0
0.0000000000e0 0.0000000000e0 0.0000000000e0
0.0000000000e0 0.0000000000e0 0.0000000000e0
0.0000000000e0 0.0000000000e0 0.0000000000e0
0.0000000000e0 0.0000000000e0 0.0000000000e0
0.0000000000e0 0.0000000000e0 0.0000000000e0
0.0000000000e0 0.0000000000e0 0.0000000000e0
0.0000000000e0 0.0000000000e0 0.0000000000e0
0.0000000000e0 0.0000000000e0 0.0000000000e0
0.0000000000e0 0.0000000000e0 0.0000000000e0
0.0000000000e0 0.0000000000e0 0.0000000000e0
0.0000000000e0 0.0000000000e0 0.0000000000e0
0.0000000000e0 0.0000000000e0 0.0000000000e0
0.0000000000e0 0.0000000000e0 0.0000000000e0
0.0000000000e0 0.0000000000e0 0.0000000000e0
0.0000000000e0 0.0000000000e0 0.0000000000e0
0.0000000000e0 0.0000000000e0 0.0000000000e0
0.0000000000e0 0.0000000000e0 0.0000000000e0
0.0000000000e0 0.0000000000e0 0.0000000000e0
0.0000000000e0 0.0000000000e0 0.0000000000e0
0.0000000000e0 0.0000000000e0 0.0000000000e0
0.0000000000e0 0.0000000000e0 0.0000000000e0
0.0000000000e0 0.0000000000e0 0.0000000000e0
0.0000000000e0 0.0000000000e0 0.0000000000e0
0.0000000000e0 0.0000000000e0 0.0000000000e0
0.0000000000e0 0.0000000000e0 0.0000000000e0
0.0000000000e0 0.0000000000e0 0.0000000000e0
0.0000000000e0 0.0000000000e0 0.0000000000e0
0.0000000000e0 0.0000000000e0 0.0000000000e0
0.0000000000e0 0.0000000000e0 0.0000000000e0
0.0000000000e0 0.0000000000e0 0.0000000000e0
0.0000000000e0 0.0000000000e0 0.0000000000e0
0.0000000000e0 0.0000000000e0 0.0000000000e0
0.0000000000e0 0.0000000000e0 0.0000000000e0
0.0000000000e0 0.0000000000e0 0.0000000000e0
0.0000000000e0 0.0000000000e0 0.0000000000e0
0.0000000000e0 0.0000000000e0 0.0000000000e0
0.0000000000e0 0.0000000000e0 0.0000000000e0
0.0000000000e0 0.0000000000e0 0.0000000000e0
0.0000000000e0 0.0000000000e0 0.0000000000e0
0.0000000000e0 0.0000000000e0 0.0000000000e0
0.0000000000e0 0.0000000000e0 0.0000000000e0
0.0000000000e0 0.0000000000e0 0.0000000000e0
0.0000000000e0 0.0000000000e0 0.0000000000e0
0.0000000000e0 0.0000000000e0 0.0000000000e0
0.0000000000e0 0.0000000000e0 0.0000000000e0
0.0000000000e0 0.0000000000e0 0.0000000000e0
0.0000000000e0 0.0000000000e0 0.0000000000e0
0.0000000000e0 0.0000000000e0 0.0000000000e0
0.0000000000e0 0.0000000000e0 0.0000000000e0
0.0000000000e0 0.0000000000e0 0.0000000000e0
0.0000000000e0 0.0000000000e0 0.0000000000e0
0.0000000000e0 0.0000000000e0 0.0000000000e0
0.0000000000e0 0.0000000000e0 0.0000000000e0
0.0000000000e0 0.0000000000e0 0.0000000000e0
0.0000000000e0 0.0000000000e0 0.0000000000e0
0.0000000000e0 0.0000000000e0 0.0000000000e0
0.0000000000e0 0.0000000000e0 0.0000000000e0
0.0000000000e0 0.0000000000e0 0.0000000000e0
0.0000000000e0 0.0000000000e0 0.0000000000e0
0.0000000000e0 0.0000000000e0 0.0000000000e0
0.0000000000e0 0.0000000000e0 0.0000000000e0
0.0000000000e0 0.0000000000e0 0.0000000000e0
0.0000000000e0 0.0000000000e0 0.0000000000e0
0.0000000000e0 0.0000000000e0 0.0000000000e0
0.0000000000e0 0.0000000000e0 0.0000000000e0
0.0000000000e0 0.0000000000e0 0.0000000000e0
0.0000000000e0 0.0000000000e0 0.0000000000e0
0.0000000000e0 0.0000000000e0 0.0000000000e0
0.0000000000e0 0.0000000000e0 0.0000000000e0
0.0000000000e0 0.0000000000e0 0.0000000000e0
0.0000000000e0 0.0000000000e0 0.0000000000e0
0.0000000000e0 0.0000000000e0 0.0000000000e0
0.0000000000e0 0.0000000000e0 0.0000000000e0
0.0000000000e0 0.0000000000e0 0.0000000000e0
0.0000000000e0 0.0000000000e0 0.0000000000e0
0.0000000000e0 0.0000000000e0 0.0000000000e0
0.0000000000e0 0.0000000000e0 0.0000000000e0
0.0000000000e0 0.0000000000e0 0.0000000000e0
0.0000000000e0 0.0000000000e0 0.0000000000e0
0.0000000000e0 0.0000000000e0 0.0000000000e0
0.0000000000e0 0.0000000000e0 0.0000000000e0
0.0000000000e0 0.0000000000e0 0.0000000000e0
0.0000000000e0 0.0000000000e0 0.0000000000e0
0.0000000000e0 0.0000000000e0 0.0000000000e0
0.0000000000e0 0.0000000000e0 0.0000000000e0
0.0000000000e0 0.0000000000e0 0.0000000000e0
0.0000000000e0 0.0000000000e0 0.0000000000e0
0.0000000000e0 0.0000000000e0 0.0000000000e0
0.0000000000e0 0.0000000000e0 0.0000000000e0
0.0000000000e0 0.0000000000e0 0.0000000000e0
0.0000000000e0 0.0000000000e0 0.0000000000e0
0.0000000000e0 0.0000000000e0 0.0000000000e0
0.0000000000e0 0.0000000000e0 0.0000000000e0
0.0000000000e0 0.0000000000e0 0.0000000000e0
0.0000000000e0 0.0000000000e0 0.0000000000e0
0.0000000000e0 0.0000000000e0 0.0000000000e0
0.0000000000e0 0.0000000000e0 0.0000000000e0
0.0000000000e0 0.0000000000e0 0.0000000000e0
0.0000000000e0 0.0000000000e0 0.0000000000e0
0.0000000000e0 0.0000000000e0 0.0000000000e0
0.0000000000e0 0.0000000000e0 0.0000000000e0
0.0000000000e0 0.0000000000e0 0.0000000000e0
0.0000000000e0 0.0000000000e0 0.0000000000e0
0.0000000000e0 0.0000000000e0 0.0000000000e0
0.0000000000e0 0.0000000000e0 0.0000000000e0
0.0000000000e0 0.0000000000e0 0.0000000000e0
0.0000000000e0 0.0000000000e0 0.0000000000e0
0.0000000000e0 0.0000000000e0 0.0000000000e0
0.0000000000e0 0.0000000000e0 0.0000000000e0
0.0000000000e0 0.0000000000e0 0.0000000000e0
0.0000000000e0 0.0000000000e0 0.0000000000e0
0.0000000000e0 0.0000000000e0 0.0000000000e0
0.0000000000e0 0.0000000000e0 0.0000000000e0
0.0000000000e0 0.0000000000e0 0.0000000000e0
0.0000000000e0 0.0000000000e0 0.0000000000e0
0.0000000000e0 0.0000000000e0 0.0000000000e0
0.0000000000e0 0.0000000000e0 0.0000000000e0
0.0000000000e0 0.0000000000e0 0.0000000000e0
0.0000000000e0 0.0000000000e0 0.0000000000e0
0.0000000000e0 0.0000000000e0 0.0000000000e0
0.0000000000e0 0.0000000000e0 0.0000000000e0
0.0000000000e0 0.0000000000e0 0.0000000000e0
0.0000000000e0 0.0000000000e0 0.0000000000e0
0.0000000000e0 0.0000000000e0 0.0000000000e0
0.0000000000e0 0.0000000000e0 0.0000000000e0
0.0000000000e0 0.0000000000e0 0.0000000000e0
0.0000000000e0 0.0000000000e0 0.0000000000e0
0.0000000000e0 0.0000000000e0 0.0000000000e0
0.0000000000e0 0.0000000000e0 0.0000000000e0
0.0000000000e0 0.0000000000e0 0.0000000000e0
0.0000000000e0 0.0000000000e0 0.0000000000e0
0.0000000000e0 0.0000000000e0 0.0000000000e0