# vtk DataFile Version 3.0
RapidFEM Mode 5 f=9.1354GHz
ASCII
DATASET UNSTRUCTURED_GRID
POINTS 242 double
0.0000000000e0 0.0000000000e0 1.0160000000e-2
0.0000000000e0 0.0000000000e0 0.0000000000e0
0.0000000000e0 3.0000000000e-2 1.0160000000e-2
0.0000000000e0 3.0000000000e-2 0.0000000000e0
2.2860000000e-2 0.0000000000e0 1.0160000000e-2
2.2860000000e-2 0.0000000000e0 0.0000000000e0
2.2860000000e-2 3.0000000000e-2 1.0160000000e-2
2.2860000000e-2 3.0000000000e-2 0.0000000000e0
0.0000000000e0 0.0000000000e0 3.3866666667e-3
0.0000000000e0 0.0000000000e0 6.7733333333e-3
0.0000000000e0 3.7500000000e-3 1.0160000000e-2
0.0000000000e0 7.5000000000e-3 1.0160000000e-2
0.0000000000e0 1.1250000000e-2 1.0160000000e-2
0.0000000000e0 1.5000000000e-2 1.0160000000e-2
0.0000000000e0 1.8750000000e-2 1.0160000000e-2
0.0000000000e0 2.2500000000e-2 1.0160000000e-2
0.0000000000e0 2.6250000000e-2 1.0160000000e-2
0.0000000000e0 3.0000000000e-2 3.3866666667e-3
0.0000000000e0 3.0000000000e-2 6.7733333333e-3
0.0000000000e0 3.7500000000e-3 0.0000000000e0
0.0000000000e0 7.5000000000e-3 0.0000000000e0
0.0000000000e0 1.1250000000e-2 0.0000000000e0
0.0000000000e0 1.5000000000e-2 0.0000000000e0
0.0000000000e0 1.8750000000e-2 0.0000000000e0
0.0000000000e0 2.2500000000e-2 0.0000000000e0
0.0000000000e0 2.6250000000e-2 0.0000000000e0
2.2860000000e-2 0.0000000000e0 3.3866666667e-3
2.2860000000e-2 0.0000000000e0 6.7733333333e-3
2.2860000000e-2 3.7500000000e-3 1.0160000000e-2
2.2860000000e-2 7.5000000000e-3 1.0160000000e-2
2.2860000000e-2 1.1250000000e-2 1.0160000000e-2
2.2860000000e-2 1.5000000000e-2 1.0160000000e-2
2.2860000000e-2 1.8750000000e-2 1.0160000000e-2
2.2860000000e-2 2.2500000000e-2 1.0160000000e-2
2.2860000000e-2 2.6250000000e-2 1.0160000000e-2
2.2860000000e-2 3.0000000000e-2 3.3866666667e-3
2.2860000000e-2 3.0000000000e-2 6.7733333333e-3
2.2860000000e-2 3.7500000000e-3 0.0000000000e0
2.2860000000e-2 7.5000000000e-3 0.0000000000e0
2.2860000000e-2 1.1250000000e-2 0.0000000000e0
2.2860000000e-2 1.5000000000e-2 0.0000000000e0
2.2860000000e-2 1.8750000000e-2 0.0000000000e0
2.2860000000e-2 2.2500000000e-2 0.0000000000e0
2.2860000000e-2 2.6250000000e-2 0.0000000000e0
3.8100000000e-3 0.0000000000e0 0.0000000000e0
7.6200000000e-3 0.0000000000e0 0.0000000000e0
1.1430000000e-2 0.0000000000e0 0.0000000000e0
1.5240000000e-2 0.0000000000e0 0.0000000000e0
1.9050000000e-2 0.0000000000e0 0.0000000000e0
3.8100000000e-3 0.0000000000e0 1.0160000000e-2
7.6200000000e-3 0.0000000000e0 1.0160000000e-2
1.1430000000e-2 0.0000000000e0 1.0160000000e-2
1.5240000000e-2 0.0000000000e0 1.0160000000e-2
1.9050000000e-2 0.0000000000e0 1.0160000000e-2
3.8100000000e-3 3.0000000000e-2 0.0000000000e0
7.6200000000e-3 3.0000000000e-2 0.0000000000e0
1.1430000000e-2 3.0000000000e-2 0.0000000000e0
1.5240000000e-2 3.0000000000e-2 0.0000000000e0
1.9050000000e-2 3.0000000000e-2 0.0000000000e0
3.8100000000e-3 3.0000000000e-2 1.0160000000e-2
7.6200000000e-3 3.0000000000e-2 1.0160000000e-2
1.1430000000e-2 3.0000000000e-2 1.0160000000e-2
1.5240000000e-2 3.0000000000e-2 1.0160000000e-2
1.9050000000e-2 3.0000000000e-2 1.0160000000e-2
0.0000000000e0 2.7067060633e-2 5.0800000000e-3
0.0000000000e0 2.9329393675e-3 5.0800000000e-3
0.0000000000e0 2.0607895740e-2 3.4149433368e-3
0.0000000000e0 1.3125000000e-2 3.2475952642e-3
0.0000000000e0 1.6875000000e-2 6.9124047358e-3
0.0000000000e0 9.3921042596e-3 6.7450566632e-3
0.0000000000e0 2.0575689701e-2 7.5387577184e-3
0.0000000000e0 1.6874109524e-2 3.0751560233e-3
0.0000000000e0 1.3125890476e-2 7.0848439767e-3
0.0000000000e0 9.4243102990e-3 2.6212422816e-3
0.0000000000e0 5.3249758464e-3 7.1684469476e-3
0.0000000000e0 2.4675024154e-2 2.9915530524e-3
0.0000000000e0 2.4145552764e-2 7.0464405194e-3
0.0000000000e0 5.8544472356e-3 3.1135594806e-3
0.0000000000e0 2.7479635784e-2 7.7520655419e-3
0.0000000000e0 2.7479635784e-2 2.4079344581e-3
0.0000000000e0 2.5203642158e-3 7.7520655419e-3
0.0000000000e0 2.5203642158e-3 2.4079344581e-3
2.2860000000e-2 2.7067060633e-2 5.0800000000e-3
2.2860000000e-2 2.9329393675e-3 5.0800000000e-3
2.2860000000e-2 2.0607895740e-2 3.4149433368e-3
2.2860000000e-2 1.3125000000e-2 3.2475952642e-3
2.2860000000e-2 1.6875000000e-2 6.9124047358e-3
2.2860000000e-2 9.3921042596e-3 6.7450566632e-3
2.2860000000e-2 2.0575689701e-2 7.5387577184e-3
2.2860000000e-2 1.6874109524e-2 3.0751560233e-3
2.2860000000e-2 1.3125890476e-2 7.0848439767e-3
2.2860000000e-2 9.4243102990e-3 2.6212422816e-3
2.2860000000e-2 5.3249758464e-3 7.1684469476e-3
2.2860000000e-2 2.4675024154e-2 2.9915530524e-3
2.2860000000e-2 2.4145552764e-2 7.0464405194e-3
2.2860000000e-2 5.8544472356e-3 3.1135594806e-3
2.2860000000e-2 2.7479635784e-2 2.4079344581e-3
2.2860000000e-2 2.7479635784e-2 7.7520655419e-3
2.2860000000e-2 2.5203642158e-3 7.7520655419e-3
2.2860000000e-2 2.5203642158e-3 2.4079344581e-3
2.9329393675e-3 0.0000000000e0 5.0800000000e-3
1.9927060633e-2 0.0000000000e0 5.0800000000e-3
9.5250000000e-3 0.0000000000e0 3.2995567884e-3
1.3335000000e-2 0.0000000000e0 6.8604432116e-3
1.3288060349e-2 0.0000000000e0 2.6642308317e-3
9.5719396507e-3 0.0000000000e0 7.4957691683e-3
1.7465697863e-2 0.0000000000e0 7.1978653226e-3
5.3943021370e-3 0.0000000000e0 2.9621346774e-3
1.6910301746e-2 0.0000000000e0 3.1611541587e-3
5.9496982536e-3 0.0000000000e0 6.9988458413e-3
2.5281752011e-3 0.0000000000e0 7.7655945654e-3
2.5281752011e-3 0.0000000000e0 2.3944054346e-3
2.0331824799e-2 0.0000000000e0 7.7655945654e-3
2.0331824799e-2 0.0000000000e0 2.3944054346e-3
2.9329393675e-3 3.0000000000e-2 5.0800000000e-3
1.9927060633e-2 3.0000000000e-2 5.0800000000e-3
9.5250000000e-3 3.0000000000e-2 3.2995567884e-3
1.3335000000e-2 3.0000000000e-2 6.8604432116e-3
1.3288060349e-2 3.0000000000e-2 2.6642308317e-3
9.5719396507e-3 3.0000000000e-2 7.4957691683e-3
1.7465697863e-2 3.0000000000e-2 7.1978653226e-3
5.3943021370e-3 3.0000000000e-2 2.9621346774e-3
1.6910301746e-2 3.0000000000e-2 3.1611541587e-3
5.9496982536e-3 3.0000000000e-2 6.9988458413e-3
2.5281752011e-3 3.0000000000e-2 7.7655945654e-3
2.5281752011e-3 3.0000000000e-2 2.3944054346e-3
2.0331824799e-2 3.0000000000e-2 7.7655945654e-3
2.0331824799e-2 3.0000000000e-2 2.3944054346e-3
3.0032597289e-3 1.7053382250e-2 0.0000000000e0
1.9374906205e-2 1.3140168730e-2 0.0000000000e0
1.3292324977e-2 2.6390097520e-2 0.0000000000e0
9.5349916220e-3 3.2987589966e-3 0.0000000000e0
1.9282143073e-2 2.0260904772e-2 0.0000000000e0
3.3990631681e-3 9.0777329865e-3 0.0000000000e0
1.6993391798e-2 3.2075459795e-3 0.0000000000e0
5.5706840137e-3 2.6774551281e-2 0.0000000000e0
1.3312591326e-2 3.2785812089e-3 0.0000000000e0
1.1435229781e-2 6.5801018339e-3 0.0000000000e0
7.0221190436e-3 6.8767844285e-3 0.0000000000e0
9.5482210217e-3 9.8627330247e-3 0.0000000000e0
1.3329378341e-2 9.8552977906e-3 0.0000000000e0
1.1442663086e-2 1.3123500598e-2 0.0000000000e0
7.7150351477e-3 1.3129967350e-2 0.0000000000e0
9.6645250455e-3 1.6332769384e-2 0.0000000000e0
1.3347048630e-2 1.6371376085e-2 0.0000000000e0
1.1441262234e-2 1.9616869481e-2 0.0000000000e0
8.0656326056e-3 1.9396484399e-2 0.0000000000e0
9.7574291791e-3 2.2918228652e-2 0.0000000000e0
1.5170836301e-2 1.9788578707e-2 0.0000000000e0
1.7106992305e-2 1.6592316327e-2 0.0000000000e0
1.6701906859e-2 2.3314854219e-2 0.0000000000e0
5.6802354321e-3 3.1827773814e-3 0.0000000000e0
1.5200355414e-2 6.5624135570e-3 0.0000000000e0
1.7104311409e-2 9.8670221071e-3 0.0000000000e0
1.9330824752e-2 6.1670243647e-3 0.0000000000e0
9.2384056136e-3 2.6583295217e-2 0.0000000000e0
1.5284216663e-2 1.3158280273e-2 0.0000000000e0
3.8333502594e-3 1.3112028103e-2 0.0000000000e0
2.9169526120e-3 2.0658918312e-2 0.0000000000e0
1.7211032325e-2 2.6909153486e-2 0.0000000000e0
3.0282716898e-3 2.4278122460e-2 0.0000000000e0
3.1513738996e-3 5.6064197490e-3 0.0000000000e0
1.3272751910e-2 2.2405725716e-2 0.0000000000e0
1.9926363821e-2 2.4391666377e-2 0.0000000000e0
6.1886758944e-3 2.2696242807e-2 0.0000000000e0
6.3313909733e-3 1.6128987380e-2 0.0000000000e0
2.0270458824e-2 1.6842117338e-2 0.0000000000e0
6.3399109015e-3 1.0257232482e-2 0.0000000000e0
2.0306008473e-2 9.5848430404e-3 0.0000000000e0
2.8124266069e-3 2.7969454326e-3 0.0000000000e0
2.0060936205e-2 2.7833688157e-3 0.0000000000e0
2.7164751199e-3 2.7280121283e-2 0.0000000000e0
2.0259599042e-2 2.7402075216e-2 0.0000000000e0
5.3011823629e-3 1.9186803030e-2 0.0000000000e0
3.4850937950e-3 1.6859831270e-2 1.0160000000e-2
1.9856740271e-2 1.2946617750e-2 1.0160000000e-2
1.3325008378e-2 2.6701241003e-2 1.0160000000e-2
9.5676750235e-3 3.6099024795e-3 1.0160000000e-2
1.9460936832e-2 2.0922267013e-2 1.0160000000e-2
3.5778569271e-3 9.7390952284e-3 1.0160000000e-2
1.7289315986e-2 3.2254487189e-3 1.0160000000e-2
5.8666082021e-3 2.6792454020e-2 1.0160000000e-2
9.5474086744e-3 2.6721418791e-2 1.0160000000e-2
1.1424770219e-2 2.3419898166e-2 1.0160000000e-2
1.5837880956e-2 2.3123215571e-2 1.0160000000e-2
1.3311778978e-2 2.0137266975e-2 1.0160000000e-2
9.5306216592e-3 2.0144702209e-2 1.0160000000e-2
1.1417336914e-2 1.6876499402e-2 1.0160000000e-2
1.5144964852e-2 1.6870032650e-2 1.0160000000e-2
1.3195474954e-2 1.3667230616e-2 1.0160000000e-2
9.5129513703e-3 1.3628623915e-2 1.0160000000e-2
1.1418737766e-2 1.0383130519e-2 1.0160000000e-2
1.4794367394e-2 1.0603515601e-2 1.0160000000e-2
1.3102570821e-2 7.0817713478e-3 1.0160000000e-2
7.6891636986e-3 1.0211421293e-2 1.0160000000e-2
5.7530076952e-3 1.3407683673e-2 1.0160000000e-2
6.1580931408e-3 6.6851457810e-3 1.0160000000e-2
1.7179764568e-2 2.6817222619e-2 1.0160000000e-2
7.6596445855e-3 2.3437586443e-2 1.0160000000e-2
5.7556885912e-3 2.0132977893e-2 1.0160000000e-2
3.5291752478e-3 2.3832975635e-2 1.0160000000e-2
1.3621594386e-2 3.4167047832e-3 1.0160000000e-2
7.5757833375e-3 1.6841719727e-2 1.0160000000e-2
1.9943047388e-2 9.3410816876e-3 1.0160000000e-2
1.9026649741e-2 1.6887971897e-2 1.0160000000e-2
5.6489676750e-3 3.0908465141e-3 1.0160000000e-2
1.9831728310e-2 5.7218775397e-3 1.0160000000e-2
1.9708626100e-2 2.4393580251e-2 1.0160000000e-2
9.5872480899e-3 7.5942742841e-3 1.0160000000e-2
[...]
POINT_DATA 242
VECTORS E_real double
0.0000000000e0 0.0000000000e0 0.0000000000e0
0.0000000000e0 0.0000000000e0 0.0000000000e0
-2.1846754921e-17 -1.0100552217e-17 -1.9363109722e-17
-4.8751218636e-19 -2.7594963002e-18 -3.3776356611e-18
6.0707503695e-18 3.3649799152e-18 -9.6093391684e-18
6.3180816829e-18 -2.8724342287e-19 3.0065521168e-19
1.1801898796e-16 2.6441114945e-17 1.9086138996e-16
1.7481409737e-17 -2.0378000530e-18 -8.0108314661e-17
0.0000000000e0 0.0000000000e0 0.0000000000e0
0.0000000000e0 0.0000000000e0 0.0000000000e0
-1.0171949115e-19 0.0000000000e0 0.0000000000e0
0.0000000000e0 0.0000000000e0 4.7607170154e-18
3.6570294136e-18 0.0000000000e0 0.0000000000e0
1.1959167067e-18 0.0000000000e0 0.0000000000e0
-3.8414196833e-18 5.5815826525e-19 9.9208269940e-19
-7.0987403236e-18 1.3901522806e-18 -9.6690129806e-18
1.4873905352e-17 0.0000000000e0 0.0000000000e0
-1.1149616503e-17 2.0897828351e-17 -7.8759269319e-18
-1.2527011312e-17 4.5934555426e-17 5.7061022502e-19
0.0000000000e0 0.0000000000e0 0.0000000000e0
0.0000000000e0 0.0000000000e0 0.0000000000e0
0.0000000000e0 0.0000000000e0 0.0000000000e0
0.0000000000e0 0.0000000000e0 0.0000000000e0
0.0000000000e0 0.0000000000e0 1.3417327507e-17
0.0000000000e0 0.0000000000e0 5.3752196647e-18
0.0000000000e0 0.0000000000e0 9.9017919536e-18
0.0000000000e0 6.9417618506e-18 0.0000000000e0
0.0000000000e0 -8.1536538953e-18 0.0000000000e0
6.3231141900e-17 -9.8633478179e-18 4.0094048275e-17
-4.9664949851e-17 7.6280410012e-18 6.7069353763e-17
-9.3409839419e-18 -7.3628768452e-32 1.4864193047e-16
5.4366735591e-17 5.7946888348e-17 -1.8176591919e-16
1.1113852083e-17 -6.8043282195e-18 -1.9409505263e-17
-5.3183961090e-17 -4.6614324617e-18 -9.4982948783e-17
5.0063733116e-17 -1.5790571701e-30 1.4814482025e-16
1.7729049504e-17 -3.6066255168e-17 -5.4554101972e-18
9.6541329435e-17 8.2890003660e-17 2.0959602048e-17
3.7313888809e-18 0.0000000000e0 5.6846033472e-33
0.0000000000e0 0.0000000000e0 1.3153271672e-17
0.0000000000e0 0.0000000000e0 1.9898761536e-18
-4.0139967680e-17 -8.2514221046e-18 6.6680124156e-17
4.4194601113e-17 -3.8457391516e-18 -3.0443204731e-17
0.0000000000e0 0.0000000000e0 -2.1207941803e-17
5.2947714910e-17 9.5296702295e-18 -6.8227310443e-17
0.0000000000e0 0.0000000000e0 0.0000000000e0
0.0000000000e0 0.0000000000e0 0.0000000000e0
0.0000000000e0 0.0000000000e0 -2.4644634647e-19
0.0000000000e0 0.0000000000e0 0.0000000000e0
0.0000000000e0 0.0000000000e0 0.0000000000e0
-1.2753398790e-18 1.6797141804e-18 6.8274247141e-19
0.0000000000e0 0.0000000000e0 0.0000000000e0
0.0000000000e0 2.9802057333e-18 0.0000000000e0
1.1763429812e-17 5.0593356663e-17 6.9065791212e-19
0.0000000000e0 -1.5421139986e-18 0.0000000000e0
-4.7822563865e-18 6.9864816758e-18 -1.0698260009e-17
0.0000000000e0 0.0000000000e0 -7.2888292646e-18
0.0000000000e0 0.0000000000e0 1.0566733604e-17
0.0000000000e0 0.0000000000e0 9.3087553896e-18
0.0000000000e0 0.0000000000e0 2.3672711572e-17
-2.4430859086e-18 -3.9164049853e-17 3.5964795596e-17
-4.3462856935e-18 4.9368723608e-17 6.4599179157e-17
-1.7792574545e-17 6.5667828073e-17 -1.1170342359e-16
-6.3794796841e-18 7.2433261100e-17 -4.5030787375e-17
3.1603890784e-17 -1.8110612982e-16 2.0959654056e-16
-4.1056778118e-3 -4.5778304338e-4 -7.0683112227e-5
-3.1538886940e-3 4.9061457535e-5 7.5752401911e-6
-4.4266380033e-4 1.4179178149e-4 -9.0791078936e-4
-3.5856454344e-3 1.5613915549e-3 -5.2246904825e-4
-3.7014927759e-3 4.4883082408e-4 -2.6518331585e-3
-1.1683895252e-3 -4.2541976999e-5 -4.0866238496e-4
-3.5620820497e-3 1.3434726435e-4 7.8008010142e-4
-3.0444968871e-3 1.8101421828e-3 2.9503155093e-4
-2.3358415172e-3 1.1241963347e-3 6.3004814034e-4
-4.8359317068e-3 -1.2525399478e-3 -1.6652969853e-4
-1.2228035233e-3 -1.3232586456e-3 9.5543641090e-4
-3.5450532100e-3 7.9386637843e-5 7.6259579463e-4
-1.3486500484e-3 -2.4890834464e-5 -1.8048703304e-4
-4.0112155282e-3 -5.6167512170e-4 2.6539187614e-3
-4.5421618350e-3 -4.5694530359e-4 8.2473509569e-4
-1.4142195203e-3 1.0747779629e-3 -5.2416649062e-4
-2.8311533166e-3 2.4593547886e-3 -3.5886754108e-3
-1.2583305752e-3 -4.8499781674e-4 1.3587554570e-3
1.4841570205e-3 -2.5197961331e-4 -3.8906428590e-5
8.9633230097e-4 5.0630347609e-3 7.8174816518e-4
6.3036722401e-3 2.6521005933e-4 2.5476337257e-3
4.6927010224e-3 -6.5220405114e-4 3.8534259149e-3
4.8028387635e-3 4.7618748160e-3 -5.6043047775e-4
1.6975596785e-3 6.4001470833e-4 3.1312002637e-4
1.9397796983e-3 1.8950847076e-3 1.3358475797e-3
2.5890738138e-3 6.5447655523e-18 1.5854113619e-17
9.7963948632e-4 3.2216281160e-5 -3.5401176485e-4
2.2038960196e-3 -8.2295229032e-4 -1.6295832448e-3
3.4028153989e-3 -4.8060750058e-5 -4.6167625783e-4
3.1208029044e-3 3.2344616607e-3 3.2045377284e-4
3.7671497225e-3 4.3990947911e-4 -2.0785752739e-3
8.2200689334e-4 -5.7115218025e-5 -4.1415068900e-4
2.0396803983e-3 -2.3916398701e-4 1.0055384127e-4
-1.1785164855e-4 -5.4059224334e-3 2.7054543993e-3
3.4116719214e-3 -1.5609390921e-4 -2.9802421971e-4
4.9379681670e-3 1.4113104194e-3 7.2675844164e-3
-9.4421245323e-3 -3.7142816604e-4 -1.4230866097e-3
7.1714356970e-3 -3.9159290470e-4 -1.0808556991e-3
-4.8455614841e-4 -1.7199468651e-4 5.4203396533e-6
-1.3291114099e-5 -1.2279627274e-3 -7.8723785701e-5
1.9497264764e-3 -4.0381579379e-3 -1.3774276500e-4
-5.0253136496e-4 -6.4544147973e-4 7.1056095459e-4
-3.5217560649e-3 -3.9895856833e-3 -1.0032824385e-3
3.6101637793e-5 -2.8357167570e-3 -4.4195372266e-4
3.4210418660e-4 -3.5403172176e-3 1.5265983808e-3
3.1816583515e-4 -4.8142795278e-3 -2.3192178686e-3
-9.6600074049e-3 -2.0437261035e-3 -2.5245612103e-3
-3.5538950968e-3 -2.0147660394e-4 5.3563162688e-4
7.4026289948e-3 -1.7928463351e-3 -1.1157004086e-3
1.6855062316e-3 4.3879045945e-4 2.5403407258e-4
-4.8283284781e-3 1.2103862509e-4 7.2771012296e-4
8.1251565365e-3 5.9018479171e-5 1.2245974335e-3
-7.5633245092e-5 -6.0951106287e-6 -4.4797865206e-4
4.2028101411e-4 4.1833394560e-4 -4.7013454556e-6
-3.4239284583e-4 3.5804073178e-3 -1.5181183941e-3
-1.2905469352e-3 4.8847745157e-3 -4.6689366056e-4
-2.6453594634e-5 1.9920562666e-3 3.2384305369e-4
-1.4530452311e-3 1.5944922188e-3 -1.3934439022e-4
-2.3384187812e-4 5.1607012185e-3 1.7045521620e-3
-2.5096098821e-4 3.1731300044e-3 -1.1198829283e-3
-8.2299648745e-3 1.3637076861e-3 -1.2403938087e-3
-2.5262310026e-3 4.4331009959e-4 3.8074540328e-4
4.5645750382e-3 3.7307317695e-3 -6.8795805369e-4
5.9135155383e-3 1.8935577050e-3 1.7867847496e-3
-8.4826558646e-3 -1.7865363133e-3 -2.6900876211e-3
0.0000000000e0 0.0000000000e0 -2.6704760070e-3
-2.1741354241e-3 5.5085819853e-3 -1.4199912370e-3
1.5593492507e-3 -4.4927564305e-3 -3.8391783093e-4
-3.8091461883e-4 3.3156265759e-3 -6.4036742198e-3
-8.7250158356e-4 9.3923762126e-5 -6.1914169552e-4
7.8388544228e-4 4.1895397837e-4 -1.1140588355e-3
-2.3992117587e-3 4.7149696399e-3 -2.2124789445e-3
-2.5884298019e-5 -4.8459483210e-3 -2.3479063804e-3
-1.8830112361e-3 1.0890044650e-3 -1.4167713411e-3
-3.2577254311e-4 -2.2879236214e-4 -4.0262522290e-3
-1.0821695230e-7 -5.5033280085e-5 -2.9961581027e-3
2.5346529311e-6 1.2889871846e-3 -2.1874498610e-3
9.9423693242e-4 -5.8296891257e-4 -3.8429729105e-4
4.7738252275e-3 2.2024779429e-3 -2.3398205959e-3
-5.6126192064e-5 9.1802082183e-4 -3.9821104232e-3
6.6283047408e-4 3.9961895962e-4 -1.7928519848e-3
-2.0801062164e-3 -1.2214593115e-3 -2.5090262134e-3
-1.4555842482e-4 1.9190499586e-3 -4.3764170174e-3
6.2418142436e-4 -2.9984800683e-4 -3.6129390017e-3
1.5036368519e-3 -6.5286280265e-4 -1.7152151195e-3
0.0000000000e0 0.0000000000e0 -2.4158286971e-3
-6.3671136441e-4 3.1104410736e-4 -4.6006090712e-3
0.0000000000e0 0.0000000000e0 -5.0564288289e-3
6.8177373812e-4 3.6437954391e-4 -2.1084212453e-3
-4.0054826756e-6 -4.5447531870e-5 -2.1299743564e-3
1.1577646757e-2 -3.3033737937e-3 -1.4164345804e-3
1.4330760157e-4 2.7482129134e-3 -4.1624016655e-3
-2.0456598617e-3 9.1328798047e-4 -4.0458894576e-3
0.0000000000e0 0.0000000000e0 -2.0095462040e-3
-1.8102153879e-4 -2.9318148066e-4 -3.0438453496e-3
-7.6059852493e-4 4.7040639644e-3 -6.9361024049e-4
-4.9686572038e-3 1.5282540437e-4 -8.6052235682e-4
3.7315641345e-4 -1.1369911323e-3 -1.8914377552e-3
0.0000000000e0 0.0000000000e0 -2.4214967363e-3
3.5289421654e-3 -4.3735618282e-3 -3.0068588745e-3
0.0000000000e0 0.0000000000e0 -2.2968246148e-3
1.6726969268e-3 7.7172454182e-4 -4.1831135660e-3
8.0608837571e-6 -1.0940919385e-5 3.3421704631e-3
0.0000000000e0 0.0000000000e0 -5.1380752231e-3
2.5881628246e-3 4.0968705978e-4 -2.2815693547e-4
-5.4418731211e-3 -6.4413456724e-3 -3.4258313557e-4
4.8839470165e-3 -6.7929440403e-3 -3.1807425963e-4
-1.0141974171e-3 1.6799130153e-3 -1.4528203660e-4
4.1649083760e-3 5.7019344266e-3 -6.2340561600e-4
-1.1847059611e-3 -1.9187432068e-3 -3.0909337981e-3
-7.5242685604e-19 3.7440008431e-18 8.8170831026e-4
3.7215379789e-18 -3.0696437469e-17 2.7530842069e-3
-2.4824310858e-3 5.9623736572e-3 -1.8510193910e-4
8.3174455919e-4 -3.2042136347e-3 4.3306343026e-4
2.6483996123e-3 -2.8509708164e-4 3.4520270470e-4
-2.3858079697e-4 2.0766985351e-3 1.1149687053e-3
7.7113679458e-4 -6.0108252590e-4 3.2624499685e-4
-1.2870133946e-3 -6.8785482264e-4 2.7378594376e-3
1.6561695750e-5 3.1006103257e-3 2.9725099909e-3
2.4318460977e-3 -1.4064128816e-3 1.2254523664e-3
-3.2808377410e-3 -2.3041555602e-3 1.4728334417e-3
-1.1928117107e-6 -6.0659942424e-4 -1.1455488115e-3
-2.2972709828e-6 -1.1682675841e-3 -3.0972686817e-4
-2.4311580549e-4 1.4255048483e-4 2.6537807464e-3
-7.5618709006e-3 -3.4887858420e-3 5.1359990518e-4
2.6723134895e-5 -4.3709350939e-4 3.1302388578e-3
-1.0078246953e-3 -6.0761517761e-4 -9.3050397098e-4
2.1562218391e-3 1.2661551715e-3 1.0833066085e-3
6.1836292967e-5 -8.1525295156e-4 4.3455052619e-3
-7.4584839428e-4 3.5829511372e-4 6.7136553392e-4
-4.6450941435e-4 2.0168494655e-4 -2.9072452162e-5
-1.7566755571e-17 -5.5827736014e-17 1.0676536335e-3
-5.1174889242e-3 -2.5923157190e-3 9.8187710423e-4
-3.9463116397e-17 -1.1194298845e-17 3.8863046374e-3
-8.3008567095e-4 -4.4364606800e-4 1.3522319463e-3
-2.1674925778e-5 -2.4593088021e-4 2.8592408438e-4
-3.5059048626e-3 1.0003167732e-3 2.6186955829e-3
-5.1301900710e-4 -9.8381763748e-3 2.6301792292e-3
1.7349486969e-3 9.9841801458e-4 2.5929815171e-3
-1.4822579508e-4 -2.4006567597e-4 4.7203479002e-3
-2.5141327787e-17 -2.0617128199e-17 9.6468218787e-4
4.8550819630e-4 -3.0027163290e-3 2.1062260775e-4
6.4527948967e-3 -1.9847434607e-4 5.6557244451e-4
-5.6782015644e-4 1.7301229708e-3 1.0657320334e-4
9.6654181897e-18 -4.7657623841e-18 1.3752959748e-3
-2.9550334787e-3 -2.9184211517e-3 1.0821059515e-4
-1.5496520003e-17 -2.9112541565e-17 1.8968426102e-3
-3.1596380950e-3 -1.4577477976e-3 -2.3572431043e-3
-4.2735946817e-3 -1.2354266013e-3 7.9088310204e-4
2.5095006797e-17 -1.3701437883e-17 -1.4142631510e-3
-6.7150919830e-3 -3.4025907690e-3 -3.1748173929e-4
4.8905907234e-3 4.4559834435e-3 7.2883280177e-4
1.6792016548e-3 -3.2041848602e-3 -5.8235816195e-6
-4.1170411364e-3 4.4781482924e-3 -2.0800717523e-4
-1.3458590091e-3 -1.3864245429e-3 2.3014439454e-4
8.6889845422e-4 1.4072631194e-3 2.7225278671e-3
1.8533402766e-3 9.9672261219e-4 4.0235516450e-3
-2.6689218567e-3 -9.7666945026e-4 -7.4213672127e-3
4.8643454831e-3 -7.2229569596e-4 -9.6574220177e-3
-2.2450749967e-3 -1.0158885792e-3 4.9945585927e-3
-6.3307402866e-3 1.0005627768e-3 -3.6209477003e-3
3.1251540598e-3 -1.8279845447e-3 -2.0669744674e-3
9.0889893466e-3 2.6271072494e-4 -2.1090418110e-4
-4.9288332012e-4 -3.1399136549e-3 -4.3238186013e-3
5.9621204328e-3 -5.3572246927e-3 1.0836261399e-2
-1.1331129504e-3 2.2139748884e-3 -4.7667680918e-3
-1.8314466458e-3 -8.8558975686e-4 1.2949403952e-3
8.8945186318e-4 -1.8495789803e-3 -5.9658801834e-3
-2.0516181252e-3 1.7994459254e-4 -2.1805974053e-4
3.2795436973e-3 1.7708918433e-4 -4.0506607115e-4
-5.4558112550e-3 3.8493673892e-3 -6.4872789427e-3
8.5448088886e-3 -3.8490245987e-3 6.8920311522e-3
8.6983363892e-3 -3.9916679132e-3 -2.3354757729e-3
-5.1605602738e-4 -1.9689706145e-3 -2.3287278977e-3
-2.9434455507e-3 -1.2089705342e-3 -1.6030450728e-3
1.7586278585e-3 1.5536418120e-4 3.1338112468e-3
1.7477471063e-3 -6.8510157943e-4 -9.5826599847e-4
-2.5314339277e-3 5.3762853771e-3 -7.4006386290e-4
VECTORS E_imag double
0.0000000000e0 0.0000000000e0 0.0000000000e0
0.0000000000e0 0.0000000000e0 0.0000000000e0
0.0000000000e0 0.0000000000e0 0.0000000000e0
0.0000000000e0 0.0000000000e0 0.0000000000e0
0.0000000000e0 0.0000000000e0 0.0000000000e0
0.0000000000e0 0.0000000000e0 0.0000000000e0
0.0000000000e0 0.0000000000e0 0.0000000000e0
0.0000000000e0 0.0000000000e0 0.0000000000e0
0.0000000000e0 0.0000000000e0 0.0000000000e0
0.0000000000e0 0.0000000000e0 0.0000000000e0
0.0000000000e0 0.0000000000e0 0.0000000000e0
0.0000000000e0 0.0000000000e0 0.0000000000e0
0.0000000000e0 0.0000000000e0 0.0000000000e0
0.0000000000e0 0.0000000000e0 0.0000000000e0
0.0000000000e0 0.0000000000e0 0.0000000000e0
0.0000000000e0 0.0000000000e0 0.0000000000e0
0.0000000000e0 0.0000000000e0 0.0000000000e0
0.0000000000e0 0.0000000000e0 0.0000000000e0
0.0000000000e0 0.0000000000e0 0.0000000000e0
0.0000000000e0 0.0000000000e0 0.0000000000e0
0.0000000000e0 0.0000000000e0 0.0000000000e0
0.0000000000e0 0.0000000000e0 0.0000000000e0
0.0000000000e0 0.0000000000e0 0.0000000000e0
0.0000000000e0 0.0000000000e0 0.0000000000e0
0.0000000000e0 0.0000000000e0 0.0000000000e0
0.0000000000e0 0.0000000000e0 0.0000000000e0
0.0000000000e0 0.0000000000e0 0.0000000000e0
0.0000000000e0 0.0000000000e0 0.0000000000e0
0.0000000000e0 0.0000000000e0 0.0000000000e0
0.0000000000e0 0.0000000000e0 0.0000000000e0
0.0000000000e0 0.0000000000e0 0.0000000000e0
0.0000000000e0 0.0000000000e0 0.0000000000e0
0.0000000000e0 0.0000000000e0 0.0000000000e0
0.0000000000e0 0.0000000000e0 0.0000000000e0
0.0000000000e0 0.0000000000e0 0.0000000000e0
0.0000000000e0 0.0000000000e0 0.0000000000e0
0.0000000000e0 0.0000000000e0 0.0000000000e0
0.0000000000e0 0.0000000000e0 0.0000000000e0
0.0000000000e0 0.0000000000e0 0.0000000000e0
0.0000000000e0 0.0000000000e0 0.0000000000e0
0.0000000000e0 0.0000000000e0 0.0000000000e0
0.0000000000e0 0.0000000000e0 0.0000000000e0
0.0000000000e0 0.0000000000e0 0.0000000000e0
0.0000000000e0 0.0000000000e0 0.0000000000e0
0.0000000000e0 0.0000000000e0 0.0000000000e0
0.0000000000e0 0.0000000000e0 0.0000000000e0
0.0000000000e0 0.0000000000e0 0.0000000000e0
0.0000000000e0 0.0000000000e0 0.0000000000e0
0.0000000000e0 0.0000000000e0 0.0000000000e0
0.0000000000e0 0.0000000000e0 0.0000000000e0
0.0000000000e0 0.0000000000e0 0.0000000000e0
0.0000000000e0 0.0000000000e0 0.0000000000e0
0.0000000000e0 0.0000000000e0 0.0000000000e0
0.0000000000e0 0.0000000000e0 0.0000000000e0
0.0000000000e0 0.0000000000e0 0.0000000000e0
0.0000000000e0 0.0000000000e0 0.0000000000e0
0.0000000000e0 0.0000000000e0 0.0000000000e0
0.0000000000e0 0.0000000000e0 0.0000000000e0
0.0000000000e0 0.0000000000e0 0.0000000000e0
0.0000000000e0 0.0000000000e0 0.0000000000e0
0.0000000000e0 0.0000000000e0 0.0000000000e0
0.0000000000e0 0.0000000000e0 0.0000000000e0
0.0000000000e0 0.0000000000e0 0.0000000000e0
0.0000000000e0 0.0000000000e0 0.0000000000e0
0.0000000000e0 0.0000000000e0 0.0000000000e0
0.0000000000e0 0.0000000000e0 0.0000000000e0
0.0000000000e0 0.0000000000e0 0.0000000000e0
0.0000000000e0 0.0000000000e0 0.0000000000e0
0.0000000000e0 0.0000000000e0 0.0000000000e0
0.0000000000e0 0.0000000000e0 0.0000000000e0
0.0000000000e0 0.0000000000e0 0.0000000000e0
0.0000000000e0 0.0000000000e0 0.0000000000e0
0.0000000000e0 0.0000000000e0 0.0000000000e0
0.0000000000e0 0.0000000000e0 0.0000000000e0
0.0000000000e0 0.0000000000e0 0.0000000000e0
0.0000000000e0 0.0000000000e0 0.0000000000e0
0.0000000000e0 0.0000000000e0 0.0000000000e0
0.0000000000e0 0.0000000000e0 0.0000000000e0
0.0000000000e0 0.0000000000e0 0.0000000000e0
0.0000000000e0 0.0000000000e0 0.0000000000e0
0.0000000000e0 0.0000000000e0 0.0000000000e0
0.0000000000e0 0.0000000000e0 0.0000000000e0
0.0000000000e0 0.0000000000e0 0.0000000000e0
0.0000000000e0 0.0000000000e0 0.0000000000e0
0.0000000000e0 0.0000000000e0 0.0000000000e0
0.0000000000e0 0.0000000000e0 0.0000000000e0
0.0000000000e0 0.0000000000e0 0.0000000000e0
0.0000000000e0 0.0000000000e0 0.0000000000e0
0.0000000000e0 0.0000000000e0 0.0000000000e0
0.0000000000e0 0.0000000000e0 0.0000000000e0
0.0000000000e0 0.0000000000e0 0.0000000000e0
0.0000000000e0 0.0000000000e0 0.0000000000e0
0.0000000000e0 0.0000000000e0 0.0000000000e0
0.0000000000e0 0.0000000000e0 0.0000000000e0
0.0000000000e0 0.0000000000e0 0.0000000000e0
0.0000000000e0 0.0000000000e0 0.0000000000e0
0.0000000000e0 0.0000000000e0 0.0000000000e0
0.0000000000e0 0.0000000000e0 0.0000000000e0
0.0000000000e0 0.0000000000e0 0.0000000000e0
0.0000000000e0 0.0000000000e0 0.0000000000e0
0.0000000000e0 0.0000000000e0 0.0000000000e0
0.0000000000e0 0.0000000000e0 0.0000000000e0
0.0000000000e0 0.0000000000e0 0.0000000000e0
0.0000000000e0 0.0000000000e0 0.0000000000e0
0.0000000000e0 0.0000000000e0 0.0000000000e0
0.0000000000e0 0.0000000000e0 0.0000000000e0
0.0000000000e0 0.0000000000e0 0.0000000000e0
0.0000000000e0 0.0000000000e0 0.0000000000e0
0.0000000000e0 0.0000000000e0 0.0000000000e0
0.0000000000e0 0.0000000000e0 0.0000000000e0
0.0000000000e0 0.0000000000e0 0.0000000000e0
0.0000000000e0 0.0000000000e0 0.0000000000e0
0.0000000000e0 0.0000000000e0 0.0000000000e0
0.0000000000e0 0.0000000000e0 0.0000000000e0
0.0000000000e0 0.0000000000e0 0.0000000000e0
0.0000000000e0 0.0000000000e0 0.0000000000e0
0.0000000000e0 0.0000000000e0 0.0000000000e0
0.0000000000e0 0.0000000000e0 0.0000000000e0
0.0000000000e0 0.0000000000e0 0.0000000000e0
0.0000000000e0 0.0000000000e0 0.0000000000e0
0.0000000000e0 0.0000000000e0 0.0000000000e0
0.0000000000e0 0.0000000000e0 0.0000000000e0
0.0000000000e0 0.0000000000e0 0.0000000000e0
0.0000000000e0 0.0000000000e0 0.0000000000e0
0.0000000000e0 0.0000000000e0 0.0000000000e0
0.0000000000e0 0.0000000000e0 0.0000000000e0
0.0000000000e0 0.0000000000e0 0.0000000000e0
0.0000000000e0 0.0000000000e0 0.0000000000e0
0.0000000000e0 0.0000000000e0 0.0000000000e0
0.0000000000e0 0.0000000000e0 0.0000000000e0
0.0000000000e0 0.0000000000e0 0.0000000000e0
0.0000000000e0 0.0000000000e0 0.0000000000e0
0.0000000000e0 0.0000000000e0 0.0000000000e0
0.0000000000e0 0.0000000000e0 0.0000000000e0
0.0000000000e0 0.0000000000e0 0.0000000000e0
0.0000000000e0 0.0000000000e0 0.0000000000e0
0.0000000000e0 0.0000000000e0 0.0000000000e0
0.0000000000e0 0.0000000000e0 0.0000000000e0
0.0000000000e0 0.0000000000e0 0.0000000000e0
0.0000000000e0 0.0000000000e0 0.0000000000e0
0.0000000000e0 0.0000000000e0 0.0000000000e0
0.0000000000e0 0.0000000000e0 0.0000000000e0
0.0000000000e0 0.0000000000e0 0.0000000000e0
0.0000000000e0 0.0000000000e0 0.0000000000e0
0.0000000000e0 0.0000000000e0 0.0000000000e0
0.0000000000e0 0.0000000000e0 0.0000000000e0
0.0000000000e0 0.0000000000e0 0.0000000000e0
0.0000000000e0 0.0000000000e0 0.0000000000e0
0.0000000000e0 0.0000000000e0 0.0000000000e0
0.0000000000e0 0.0000000000e0 0.0000000000e0
0.0000000000e0 0.0000000000e0 0.0000000000e0
0.0000000000e0 0.0000000000e0 0.0000000000e0
0.0000000000e0 0.0000000000e0 0.0000000000e0
0.0000000000e0 0.0000000000e0 0.0000000000e0
0.0000000000e0 0.0000000000e0 0.0000000000e0
0.0000000000e0 0.0000000000e0 0.0000000000e0
0.0000000000e0 0.0000000000e0 0.0000000000e0
0.0000000000e0 0.0000000000e0 0.0000000000e0
0.0000000000e0 0.0000000000e0 0.0000000000e0
0.0000000000e0 0.0000000000e0 0.0000000000e0
0.0000000000e0 0.0000000000e0 0.0000000000e0
0.0000000000e0 0.0000000000e0 0.0000000000e0
0.0000000000e0 0.0000000000e0 0.0000000000e0
0.0000000000e0 0.0000000000e0 0.0000000000e0
0.0000000000e0 0.0000000000e0 0.0000000000e0
0.0000000000e0 0.0000000000e0 0.0000000000e0
0.0000000000e0 0.0000000000e0 0.0000000000e0
0.0000000000e0 0.0000000000e0 0.0000000000e0
0.0000000000e0 0.0000000000e0 0.0000000000e0
0.0000000000e0 0.0000000000e0 0.0000000000e0
0.0000000000e0 0.0000000000e0 0.0000000000e0
0.0000000000e0 0.0000000000e0 0.0000000000e0
0.0000000000e0 0.0000000000e0 0.0000000000e0
0.0000000000e0 0.0000000000e0 0.0000000000e0
0.0000000000e0 0.0000000000e0 0.0000000000e0
0.0000000000e0 0.0000000000e0 0.0000000000e0