# vtk DataFile Version 3.0
RapidFEM Mode 1 f=8.5575GHz
ASCII
DATASET UNSTRUCTURED_GRID
POINTS 242 double
0.0000000000e0 0.0000000000e0 1.0160000000e-2
0.0000000000e0 0.0000000000e0 0.0000000000e0
0.0000000000e0 3.0000000000e-2 1.0160000000e-2
0.0000000000e0 3.0000000000e-2 0.0000000000e0
2.2860000000e-2 0.0000000000e0 1.0160000000e-2
2.2860000000e-2 0.0000000000e0 0.0000000000e0
2.2860000000e-2 3.0000000000e-2 1.0160000000e-2
2.2860000000e-2 3.0000000000e-2 0.0000000000e0
0.0000000000e0 0.0000000000e0 3.3866666667e-3
0.0000000000e0 0.0000000000e0 6.7733333333e-3
0.0000000000e0 3.7500000000e-3 1.0160000000e-2
0.0000000000e0 7.5000000000e-3 1.0160000000e-2
0.0000000000e0 1.1250000000e-2 1.0160000000e-2
0.0000000000e0 1.5000000000e-2 1.0160000000e-2
0.0000000000e0 1.8750000000e-2 1.0160000000e-2
0.0000000000e0 2.2500000000e-2 1.0160000000e-2
0.0000000000e0 2.6250000000e-2 1.0160000000e-2
0.0000000000e0 3.0000000000e-2 3.3866666667e-3
0.0000000000e0 3.0000000000e-2 6.7733333333e-3
0.0000000000e0 3.7500000000e-3 0.0000000000e0
0.0000000000e0 7.5000000000e-3 0.0000000000e0
0.0000000000e0 1.1250000000e-2 0.0000000000e0
0.0000000000e0 1.5000000000e-2 0.0000000000e0
0.0000000000e0 1.8750000000e-2 0.0000000000e0
0.0000000000e0 2.2500000000e-2 0.0000000000e0
0.0000000000e0 2.6250000000e-2 0.0000000000e0
2.2860000000e-2 0.0000000000e0 3.3866666667e-3
2.2860000000e-2 0.0000000000e0 6.7733333333e-3
2.2860000000e-2 3.7500000000e-3 1.0160000000e-2
2.2860000000e-2 7.5000000000e-3 1.0160000000e-2
2.2860000000e-2 1.1250000000e-2 1.0160000000e-2
2.2860000000e-2 1.5000000000e-2 1.0160000000e-2
2.2860000000e-2 1.8750000000e-2 1.0160000000e-2
2.2860000000e-2 2.2500000000e-2 1.0160000000e-2
2.2860000000e-2 2.6250000000e-2 1.0160000000e-2
2.2860000000e-2 3.0000000000e-2 3.3866666667e-3
2.2860000000e-2 3.0000000000e-2 6.7733333333e-3
2.2860000000e-2 3.7500000000e-3 0.0000000000e0
2.2860000000e-2 7.5000000000e-3 0.0000000000e0
2.2860000000e-2 1.1250000000e-2 0.0000000000e0
2.2860000000e-2 1.5000000000e-2 0.0000000000e0
2.2860000000e-2 1.8750000000e-2 0.0000000000e0
2.2860000000e-2 2.2500000000e-2 0.0000000000e0
2.2860000000e-2 2.6250000000e-2 0.0000000000e0
3.8100000000e-3 0.0000000000e0 0.0000000000e0
7.6200000000e-3 0.0000000000e0 0.0000000000e0
1.1430000000e-2 0.0000000000e0 0.0000000000e0
1.5240000000e-2 0.0000000000e0 0.0000000000e0
1.9050000000e-2 0.0000000000e0 0.0000000000e0
3.8100000000e-3 0.0000000000e0 1.0160000000e-2
7.6200000000e-3 0.0000000000e0 1.0160000000e-2
1.1430000000e-2 0.0000000000e0 1.0160000000e-2
1.5240000000e-2 0.0000000000e0 1.0160000000e-2
1.9050000000e-2 0.0000000000e0 1.0160000000e-2
3.8100000000e-3 3.0000000000e-2 0.0000000000e0
7.6200000000e-3 3.0000000000e-2 0.0000000000e0
1.1430000000e-2 3.0000000000e-2 0.0000000000e0
1.5240000000e-2 3.0000000000e-2 0.0000000000e0
1.9050000000e-2 3.0000000000e-2 0.0000000000e0
3.8100000000e-3 3.0000000000e-2 1.0160000000e-2
7.6200000000e-3 3.0000000000e-2 1.0160000000e-2
1.1430000000e-2 3.0000000000e-2 1.0160000000e-2
1.5240000000e-2 3.0000000000e-2 1.0160000000e-2
1.9050000000e-2 3.0000000000e-2 1.0160000000e-2
0.0000000000e0 2.7067060633e-2 5.0800000000e-3
0.0000000000e0 2.9329393675e-3 5.0800000000e-3
0.0000000000e0 2.0607895740e-2 3.4149433368e-3
0.0000000000e0 1.3125000000e-2 3.2475952642e-3
0.0000000000e0 1.6875000000e-2 6.9124047358e-3
0.0000000000e0 9.3921042596e-3 6.7450566632e-3
0.0000000000e0 2.0575689701e-2 7.5387577184e-3
0.0000000000e0 1.6874109524e-2 3.0751560233e-3
0.0000000000e0 1.3125890476e-2 7.0848439767e-3
0.0000000000e0 9.4243102990e-3 2.6212422816e-3
0.0000000000e0 5.3249758464e-3 7.1684469476e-3
0.0000000000e0 2.4675024154e-2 2.9915530524e-3
0.0000000000e0 2.4145552764e-2 7.0464405194e-3
0.0000000000e0 5.8544472356e-3 3.1135594806e-3
0.0000000000e0 2.7479635784e-2 7.7520655419e-3
0.0000000000e0 2.7479635784e-2 2.4079344581e-3
0.0000000000e0 2.5203642158e-3 7.7520655419e-3
0.0000000000e0 2.5203642158e-3 2.4079344581e-3
2.2860000000e-2 2.7067060633e-2 5.0800000000e-3
2.2860000000e-2 2.9329393675e-3 5.0800000000e-3
2.2860000000e-2 2.0607895740e-2 3.4149433368e-3
2.2860000000e-2 1.3125000000e-2 3.2475952642e-3
2.2860000000e-2 1.6875000000e-2 6.9124047358e-3
2.2860000000e-2 9.3921042596e-3 6.7450566632e-3
2.2860000000e-2 2.0575689701e-2 7.5387577184e-3
2.2860000000e-2 1.6874109524e-2 3.0751560233e-3
2.2860000000e-2 1.3125890476e-2 7.0848439767e-3
2.2860000000e-2 9.4243102990e-3 2.6212422816e-3
2.2860000000e-2 5.3249758464e-3 7.1684469476e-3
2.2860000000e-2 2.4675024154e-2 2.9915530524e-3
2.2860000000e-2 2.4145552764e-2 7.0464405194e-3
2.2860000000e-2 5.8544472356e-3 3.1135594806e-3
2.2860000000e-2 2.7479635784e-2 2.4079344581e-3
2.2860000000e-2 2.7479635784e-2 7.7520655419e-3
2.2860000000e-2 2.5203642158e-3 7.7520655419e-3
2.2860000000e-2 2.5203642158e-3 2.4079344581e-3
2.9329393675e-3 0.0000000000e0 5.0800000000e-3
1.9927060633e-2 0.0000000000e0 5.0800000000e-3
9.5250000000e-3 0.0000000000e0 3.2995567884e-3
1.3335000000e-2 0.0000000000e0 6.8604432116e-3
1.3288060349e-2 0.0000000000e0 2.6642308317e-3
9.5719396507e-3 0.0000000000e0 7.4957691683e-3
1.7465697863e-2 0.0000000000e0 7.1978653226e-3
5.3943021370e-3 0.0000000000e0 2.9621346774e-3
1.6910301746e-2 0.0000000000e0 3.1611541587e-3
5.9496982536e-3 0.0000000000e0 6.9988458413e-3
2.5281752011e-3 0.0000000000e0 7.7655945654e-3
2.5281752011e-3 0.0000000000e0 2.3944054346e-3
2.0331824799e-2 0.0000000000e0 7.7655945654e-3
2.0331824799e-2 0.0000000000e0 2.3944054346e-3
2.9329393675e-3 3.0000000000e-2 5.0800000000e-3
1.9927060633e-2 3.0000000000e-2 5.0800000000e-3
9.5250000000e-3 3.0000000000e-2 3.2995567884e-3
1.3335000000e-2 3.0000000000e-2 6.8604432116e-3
1.3288060349e-2 3.0000000000e-2 2.6642308317e-3
9.5719396507e-3 3.0000000000e-2 7.4957691683e-3
1.7465697863e-2 3.0000000000e-2 7.1978653226e-3
5.3943021370e-3 3.0000000000e-2 2.9621346774e-3
1.6910301746e-2 3.0000000000e-2 3.1611541587e-3
5.9496982536e-3 3.0000000000e-2 6.9988458413e-3
2.5281752011e-3 3.0000000000e-2 7.7655945654e-3
2.5281752011e-3 3.0000000000e-2 2.3944054346e-3
2.0331824799e-2 3.0000000000e-2 7.7655945654e-3
2.0331824799e-2 3.0000000000e-2 2.3944054346e-3
3.0032597289e-3 1.7053382250e-2 0.0000000000e0
1.9374906205e-2 1.3140168730e-2 0.0000000000e0
1.3292324977e-2 2.6390097520e-2 0.0000000000e0
9.5349916220e-3 3.2987589966e-3 0.0000000000e0
1.9282143073e-2 2.0260904772e-2 0.0000000000e0
3.3990631681e-3 9.0777329865e-3 0.0000000000e0
1.6993391798e-2 3.2075459795e-3 0.0000000000e0
5.5706840137e-3 2.6774551281e-2 0.0000000000e0
1.3312591326e-2 3.2785812089e-3 0.0000000000e0
1.1435229781e-2 6.5801018339e-3 0.0000000000e0
7.0221190436e-3 6.8767844285e-3 0.0000000000e0
9.5482210217e-3 9.8627330247e-3 0.0000000000e0
1.3329378341e-2 9.8552977906e-3 0.0000000000e0
1.1442663086e-2 1.3123500598e-2 0.0000000000e0
7.7150351477e-3 1.3129967350e-2 0.0000000000e0
9.6645250455e-3 1.6332769384e-2 0.0000000000e0
1.3347048630e-2 1.6371376085e-2 0.0000000000e0
1.1441262234e-2 1.9616869481e-2 0.0000000000e0
8.0656326056e-3 1.9396484399e-2 0.0000000000e0
9.7574291791e-3 2.2918228652e-2 0.0000000000e0
1.5170836301e-2 1.9788578707e-2 0.0000000000e0
1.7106992305e-2 1.6592316327e-2 0.0000000000e0
1.6701906859e-2 2.3314854219e-2 0.0000000000e0
5.6802354321e-3 3.1827773814e-3 0.0000000000e0
1.5200355414e-2 6.5624135570e-3 0.0000000000e0
1.7104311409e-2 9.8670221071e-3 0.0000000000e0
1.9330824752e-2 6.1670243647e-3 0.0000000000e0
9.2384056136e-3 2.6583295217e-2 0.0000000000e0
1.5284216663e-2 1.3158280273e-2 0.0000000000e0
3.8333502594e-3 1.3112028103e-2 0.0000000000e0
2.9169526120e-3 2.0658918312e-2 0.0000000000e0
1.7211032325e-2 2.6909153486e-2 0.0000000000e0
3.0282716898e-3 2.4278122460e-2 0.0000000000e0
3.1513738996e-3 5.6064197490e-3 0.0000000000e0
1.3272751910e-2 2.2405725716e-2 0.0000000000e0
1.9926363821e-2 2.4391666377e-2 0.0000000000e0
6.1886758944e-3 2.2696242807e-2 0.0000000000e0
6.3313909733e-3 1.6128987380e-2 0.0000000000e0
2.0270458824e-2 1.6842117338e-2 0.0000000000e0
6.3399109015e-3 1.0257232482e-2 0.0000000000e0
2.0306008473e-2 9.5848430404e-3 0.0000000000e0
2.8124266069e-3 2.7969454326e-3 0.0000000000e0
2.0060936205e-2 2.7833688157e-3 0.0000000000e0
2.7164751199e-3 2.7280121283e-2 0.0000000000e0
2.0259599042e-2 2.7402075216e-2 0.0000000000e0
5.3011823629e-3 1.9186803030e-2 0.0000000000e0
3.4850937950e-3 1.6859831270e-2 1.0160000000e-2
1.9856740271e-2 1.2946617750e-2 1.0160000000e-2
1.3325008378e-2 2.6701241003e-2 1.0160000000e-2
9.5676750235e-3 3.6099024795e-3 1.0160000000e-2
1.9460936832e-2 2.0922267013e-2 1.0160000000e-2
3.5778569271e-3 9.7390952284e-3 1.0160000000e-2
1.7289315986e-2 3.2254487189e-3 1.0160000000e-2
5.8666082021e-3 2.6792454020e-2 1.0160000000e-2
9.5474086744e-3 2.6721418791e-2 1.0160000000e-2
1.1424770219e-2 2.3419898166e-2 1.0160000000e-2
1.5837880956e-2 2.3123215571e-2 1.0160000000e-2
1.3311778978e-2 2.0137266975e-2 1.0160000000e-2
9.5306216592e-3 2.0144702209e-2 1.0160000000e-2
1.1417336914e-2 1.6876499402e-2 1.0160000000e-2
1.5144964852e-2 1.6870032650e-2 1.0160000000e-2
1.3195474954e-2 1.3667230616e-2 1.0160000000e-2
9.5129513703e-3 1.3628623915e-2 1.0160000000e-2
1.1418737766e-2 1.0383130519e-2 1.0160000000e-2
1.4794367394e-2 1.0603515601e-2 1.0160000000e-2
1.3102570821e-2 7.0817713478e-3 1.0160000000e-2
7.6891636986e-3 1.0211421293e-2 1.0160000000e-2
5.7530076952e-3 1.3407683673e-2 1.0160000000e-2
6.1580931408e-3 6.6851457810e-3 1.0160000000e-2
1.7179764568e-2 2.6817222619e-2 1.0160000000e-2
7.6596445855e-3 2.3437586443e-2 1.0160000000e-2
5.7556885912e-3 2.0132977893e-2 1.0160000000e-2
3.5291752478e-3 2.3832975635e-2 1.0160000000e-2
1.3621594386e-2 3.4167047832e-3 1.0160000000e-2
7.5757833375e-3 1.6841719727e-2 1.0160000000e-2
1.9943047388e-2 9.3410816876e-3 1.0160000000e-2
1.9026649741e-2 1.6887971897e-2 1.0160000000e-2
5.6489676750e-3 3.0908465141e-3 1.0160000000e-2
1.9831728310e-2 5.7218775397e-3 1.0160000000e-2
1.9708626100e-2 2.4393580251e-2 1.0160000000e-2
9.5872480899e-3 7.5942742841e-3 1.0160000000e-2
[...]
POINT_DATA 242
VECTORS E_real double
0.0000000000e0 0.0000000000e0 0.0000000000e0
0.0000000000e0 0.0000000000e0 0.0000000000e0
1.1502690043e-19 -9.9953382167e-19 -1.3348776666e-18
-8.0629503954e-19 -7.8301307923e-19 -7.6977507223e-19
7.4083942666e-19 1.8339271600e-18 -1.4840086971e-18
6.1580360233e-19 1.3752071286e-19 -1.4394174329e-19
-1.4398100606e-17 -6.2338898550e-18 2.3771713235e-17
-4.9922139562e-18 6.4601139008e-18 2.3039435768e-17
0.0000000000e0 0.0000000000e0 0.0000000000e0
0.0000000000e0 0.0000000000e0 0.0000000000e0
2.1259870370e-19 0.0000000000e0 0.0000000000e0
0.0000000000e0 0.0000000000e0 1.1506543826e-19
9.6726860714e-19 0.0000000000e0 0.0000000000e0
7.0515970828e-19 0.0000000000e0 0.0000000000e0
-4.6143750204e-20 -4.9004083329e-20 7.1076592971e-18
8.6992041315e-19 -1.2186742764e-18 -1.3282235747e-17
2.1456665582e-19 0.0000000000e0 0.0000000000e0
3.1808730713e-19 2.6032510034e-20 -2.0740853076e-18
1.8500372364e-19 -1.8909062869e-18 -3.3304731355e-18
0.0000000000e0 0.0000000000e0 0.0000000000e0
0.0000000000e0 0.0000000000e0 0.0000000000e0
0.0000000000e0 0.0000000000e0 0.0000000000e0
0.0000000000e0 0.0000000000e0 0.0000000000e0
0.0000000000e0 0.0000000000e0 -1.8646420276e-17
0.0000000000e0 0.0000000000e0 -7.0385628795e-18
0.0000000000e0 0.0000000000e0 -5.2692722541e-18
0.0000000000e0 -7.7410748345e-20 0.0000000000e0
0.0000000000e0 -1.7467437553e-18 0.0000000000e0
-2.2281618514e-18 2.8543356354e-18 5.6212467235e-17
-4.1684877073e-18 -3.5382782193e-18 9.4798809924e-17
-2.0267201550e-18 1.0631385545e-32 2.4874318594e-16
3.5159942820e-17 -5.9395972100e-18 -3.5017357610e-16
1.2246706070e-17 -1.3937150997e-18 -4.6965792113e-17
-9.2158893951e-18 5.4917563088e-18 -2.4361261751e-16
3.2928896532e-18 3.5936910106e-31 2.0207916738e-16
1.9857762385e-19 1.0975541856e-18 -5.4003402470e-19
1.3528059146e-18 -1.4255644331e-17 -1.1580528213e-17
2.7924175417e-19 0.0000000000e0 4.2541226903e-34
0.0000000000e0 0.0000000000e0 -2.3040507706e-17
0.0000000000e0 0.0000000000e0 2.5069129382e-17
6.0042331018e-18 -7.6430829853e-19 -9.3018326643e-17
-5.2422794425e-18 -2.1975049494e-18 3.4722489399e-17
0.0000000000e0 0.0000000000e0 3.4119560373e-17
-6.5790544243e-18 -4.9839881159e-18 7.1151897352e-17
0.0000000000e0 0.0000000000e0 0.0000000000e0
0.0000000000e0 0.0000000000e0 0.0000000000e0
0.0000000000e0 0.0000000000e0 1.5459803621e-19
0.0000000000e0 0.0000000000e0 0.0000000000e0
0.0000000000e0 0.0000000000e0 0.0000000000e0
-2.4429915715e-19 4.1264938260e-19 1.3078349784e-19
0.0000000000e0 0.0000000000e0 0.0000000000e0
0.0000000000e0 9.0338603002e-19 0.0000000000e0
3.6320704144e-18 4.8201669678e-18 -1.2022608214e-17
0.0000000000e0 1.0725617836e-18 0.0000000000e0
1.3121214707e-18 -1.3384498073e-18 1.1348749798e-17
0.0000000000e0 0.0000000000e0 1.2573183902e-17
0.0000000000e0 0.0000000000e0 -1.2838154756e-17
0.0000000000e0 0.0000000000e0 -1.1726327497e-17
0.0000000000e0 0.0000000000e0 -1.0742566145e-17
-8.6391984228e-18 -3.4283268709e-17 2.6408682264e-17
5.2304259972e-19 7.8042219307e-19 7.1487630745e-17
2.2611135634e-18 1.1882283015e-17 -2.5091895659e-16
-2.1616906245e-18 1.0949427045e-17 -6.5720969199e-17
1.1113301536e-16 9.3186279895e-17 3.7169156176e-16
2.3079244775e-4 -6.9836248905e-5 -1.0782931981e-5
5.4789043387e-4 2.9486491074e-4 4.5528050633e-5
9.9444852507e-4 -4.8420776889e-4 9.2318039094e-4
5.5034841325e-4 3.5682840962e-4 1.7361498358e-3
-1.7810435579e-4 -1.6737799712e-4 9.8892165812e-4
4.5895325257e-4 1.1327800767e-4 1.0881596024e-3
-8.1007417889e-4 3.4989984213e-4 -2.1323407383e-5
-1.6696260544e-4 -1.8600266247e-4 6.6979883910e-4
6.4656016673e-4 -5.2087699967e-4 4.5388787858e-4
2.4193891810e-4 1.7086449066e-4 1.6089982643e-3
4.0237727658e-5 2.3805384104e-4 2.1562149004e-4
4.2438044682e-4 6.7685033628e-5 6.5018904197e-4
-4.4177188109e-5 7.5554600492e-5 5.4785731251e-4
4.9065753470e-4 -1.6506844431e-4 7.7994951947e-4
3.8471752131e-4 -1.5616314490e-4 1.2007278864e-3
4.6934657548e-4 -2.9741270343e-4 5.0534008339e-4
7.0174734925e-5 -1.9721717059e-4 1.7391339722e-4
7.7176649668e-4 2.2535405366e-4 3.3164142896e-4
-2.3421835749e-4 -2.7832387641e-4 -4.2974063972e-5
-1.7565918038e-4 -1.7454247597e-4 -2.6949896018e-5
-2.3406249252e-5 1.3147811428e-4 1.2629916036e-3
-8.3664794686e-4 -1.6717150833e-4 9.8770165766e-4
-7.2188996033e-4 8.4577818027e-4 1.4254875742e-3
1.3097799339e-4 -4.8177905821e-4 7.3727995374e-4
-3.3554618822e-4 5.3067043108e-5 7.0500456127e-4
5.9480007559e-4 4.1724835127e-19 -1.7694479196e-17
-4.8418909661e-4 -8.2912010310e-5 9.1108675614e-4
-1.7312823053e-3 5.8768149659e-4 7.6276455248e-4
-8.9751772581e-5 3.9032368395e-5 3.7494874202e-4
-6.4811496934e-4 -1.9299847418e-4 7.5136992256e-4
-1.3110681259e-4 -9.8238780291e-6 4.6417890350e-5
-5.0038807443e-4 1.0618420690e-4 7.6995700919e-4
-7.5263004199e-4 -1.7943524139e-4 4.8104601121e-4
-4.8781262492e-4 -9.3625672207e-5 8.3769304129e-4
-2.3576138613e-4 3.1558721621e-4 7.4544205063e-4
-6.7622939213e-4 1.5370117037e-4 -2.2603346059e-4
2.2370407425e-4 3.1000923779e-4 3.3715957834e-5
-1.4265549550e-4 1.0805710265e-4 2.1500576989e-5
7.3950074063e-5 1.0254922696e-3 -8.2721996228e-7
1.4160535852e-4 3.8325076323e-4 8.3873404555e-4
3.0858118643e-4 4.9176278099e-4 1.2344652670e-3
-4.3786270158e-4 1.3466305195e-6 6.8320287905e-4
-6.4620911632e-4 6.0418475977e-5 5.2038542878e-4
-6.7357729409e-5 5.0254558303e-4 8.2458860822e-4
2.3263052152e-4 1.8054836459e-4 1.0380854471e-3
-9.1380229174e-5 2.3389275816e-4 6.6610124949e-4
5.1366554121e-4 2.9831919773e-4 2.6003468086e-4
5.9973635964e-4 9.5258560441e-4 -9.0390333218e-5
-3.6715035357e-4 -3.8695585994e-5 5.5335719214e-5
-5.7861564767e-4 8.0590587898e-4 -8.7207087510e-5
4.3844145688e-4 2.0977488722e-4 -6.6080484777e-5
-6.8216208341e-4 -4.1814595274e-5 -1.0281327293e-4
1.4993058900e-4 8.4158781490e-5 8.8804470947e-4
2.5977555636e-4 3.5696798443e-4 -2.9059000773e-6
1.1740829665e-5 -6.6993661276e-4 1.2920627629e-3
4.6405999187e-5 2.5995450574e-8 6.2782561784e-4
-3.2829060467e-5 1.1382200304e-4 4.0189106013e-4
-1.3997839207e-4 -2.8922724544e-4 4.7211638453e-4
-1.3285790942e-4 -4.6169920240e-4 9.6844602240e-4
7.4612778384e-5 -2.4045435728e-5 3.3295046110e-4
4.1710995213e-4 -2.2353710485e-4 6.2865469061e-5
5.6831742210e-4 -6.3517586781e-4 -8.5654972108e-5
-1.9330314819e-4 -3.6448548371e-4 2.9134028138e-5
-3.1843624986e-4 -6.7396369778e-4 4.9037084806e-4
3.9560351744e-4 8.3318250892e-5 1.2090247344e-2
0.0000000000e0 0.0000000000e0 1.4245866293e-2
-7.6705929667e-5 -7.7969064558e-4 1.1728625240e-2
2.2552120223e-4 7.6802883600e-4 1.0853647959e-2
5.3404370478e-4 -4.6485207254e-3 1.1880437307e-2
-4.5409985596e-6 4.8883311682e-7 1.0513122308e-2
-6.4467399998e-4 -3.4455128578e-4 7.6638516355e-3
6.2188394585e-4 -1.5286623271e-4 7.1112725917e-3
4.5627774209e-6 8.5422380646e-4 1.0444623210e-2
1.9071220933e-3 -1.1029485301e-3 1.9525165501e-2
1.5532928867e-3 1.0908885852e-3 1.7300982704e-2
-8.0301227079e-7 -4.0836854364e-4 2.6175509066e-2
-4.1436275297e-6 -2.1072245111e-3 2.6712234742e-2
1.5680776147e-4 -9.1943929263e-5 2.9600911722e-2
-2.0001143909e-3 -9.2278364191e-4 2.4959739007e-2
1.5861852016e-4 -2.5944233677e-3 2.8221255650e-2
-2.4583863655e-3 -1.4821554532e-3 2.8203472134e-2
1.0470970996e-3 6.1486595845e-4 2.6698674443e-2
2.5263228927e-4 -3.3307174412e-3 2.4384387720e-2
8.9450033551e-4 -4.2970542257e-4 2.0600624533e-2
-8.2512635213e-4 3.5826090729e-4 2.3513029878e-2
0.0000000000e0 0.0000000000e0 2.1869487392e-2
-1.1827389030e-3 1.3596349203e-3 1.6254365944e-2
0.0000000000e0 0.0000000000e0 8.0827914099e-3
-1.4290042092e-3 -7.6374297345e-4 1.7240827869e-2
-2.0433848993e-6 -2.3184921233e-5 1.9911397377e-2
2.9468751435e-4 -8.4081250071e-5 9.3633373864e-3
-5.8469326860e-5 -1.1212675207e-3 1.0665173904e-2
4.9062267675e-4 -2.3015455839e-3 2.9605409908e-2
0.0000000000e0 0.0000000000e0 1.4801869364e-2
-1.0690648466e-4 -1.7314514988e-4 1.2085164004e-2
1.7888928059e-4 -1.1063742445e-3 7.2128342629e-3
2.6740329471e-4 -8.2247607286e-6 7.6609510991e-3
-5.8771424457e-5 1.7907393798e-4 8.1172833084e-3
0.0000000000e0 0.0000000000e0 2.3578907787e-2
-9.9436563644e-4 -4.1485232154e-4 7.7081946365e-3
0.0000000000e0 0.0000000000e0 1.7184490426e-2
1.0942305547e-3 5.0484015360e-4 2.4658595915e-2
4.8549227142e-4 -6.5895154474e-4 1.0224702886e-2
0.0000000000e0 0.0000000000e0 2.3764302142e-2
-2.0945277837e-3 1.1578656686e-3 1.2155768412e-2
1.0620211378e-3 8.1323692750e-4 4.4187786739e-3
-9.1526842373e-4 6.9487194939e-4 4.1843369668e-3
7.4739413469e-4 -7.1736954044e-4 4.0887479324e-3
-8.4910944644e-4 -1.0587984637e-3 4.0063508090e-3
-1.0455824479e-4 -1.6934195361e-4 2.1371577444e-2
-2.9124137861e-18 1.2136089581e-18 1.3784335618e-2
2.3751308260e-18 -7.4822036055e-18 1.2034725326e-2
6.6944246760e-4 7.5787487599e-5 1.0668834053e-2
-4.9672376194e-4 -6.2512748079e-5 1.1242923892e-2
-4.2166845001e-4 4.5392109242e-5 1.0780954525e-2
4.2908718252e-4 -3.7349390005e-3 1.1363262451e-2
-2.3888389625e-4 -2.9204448828e-5 7.0497964815e-3
2.3852062219e-4 1.2747929506e-4 7.1973790742e-3
-9.0219762339e-7 -1.6890560659e-4 9.8396926627e-3
1.1587640667e-3 -6.7014960844e-4 1.9047075886e-2
1.5694989288e-3 1.1022702032e-3 1.6954861011e-2
-4.4455382668e-7 -2.2607599582e-4 2.6054347933e-2
-2.6887336389e-6 -1.3673442864e-3 2.6486639605e-2
4.1994417115e-4 -2.4623345685e-4 2.9404297527e-2
-1.1227330069e-3 -5.1799019979e-4 2.5074867374e-2
1.3751664606e-4 -2.2492732856e-3 2.7868723895e-2
-2.2756400064e-3 -1.3719780960e-3 2.7843836587e-2
6.1593439847e-4 3.6168287964e-4 2.6653183477e-2
2.1327772023e-4 -2.8118647250e-3 2.3673038694e-2
1.8961483881e-3 -9.1088310649e-4 2.0336873446e-2
-2.3667121032e-4 1.0276007101e-4 2.3413079846e-2
3.0086996667e-17 -9.8162179691e-18 2.1096081981e-2
-9.1288915202e-4 1.4550615297e-3 1.5718076851e-2
5.3234041026e-18 8.5767209938e-18 7.5960212740e-3
-6.2489066229e-4 -3.3397791934e-4 1.7437953780e-2
-1.6840467760e-5 -1.9107751979e-4 1.9636821015e-2
8.1709527060e-4 -2.3313641886e-4 9.4810407734e-3
2.3875475583e-5 4.5786050140e-4 1.0149103715e-2
-3.1291094966e-4 -1.0600633837e-3 2.8278147280e-2
1.0601402520e-5 1.7169972748e-5 1.1300977305e-2
3.2013620146e-17 6.1631997375e-18 1.4702951699e-2
9.8638172503e-5 -6.1004624329e-4 6.9331133480e-3
-4.4383147386e-4 1.3651318995e-5 7.6383960097e-3
1.1378547300e-4 -3.4669931729e-4 7.6693139815e-3
-3.6400669860e-18 8.9524482322e-18 2.2641486935e-2
-1.6226285879e-4 -1.1461764004e-4 7.1021457003e-3
-6.0007027064e-19 4.2141695243e-18 1.6659193087e-2
4.9515755465e-4 2.2844857958e-4 2.3751534602e-2
-7.8679564235e-4 -2.2744980251e-4 1.1230274590e-2
-3.9951287925e-17 1.2378658966e-17 2.3704706162e-2
-9.0078652678e-4 1.5944903042e-3 1.1472612249e-2
3.8765059504e-4 6.0446317337e-4 3.9194469919e-3
3.6211128997e-4 -3.2893671318e-4 3.5403752746e-3
-1.7202502002e-4 6.8327530804e-4 3.7957091194e-3
-7.0752465790e-5 -5.3083304005e-4 3.2091480216e-3
-1.7322718873e-4 -2.8055779452e-4 2.0213181608e-2
-5.2179726055e-4 -3.5025636416e-3 3.1174307863e-2
5.4690734575e-4 -2.6069044081e-3 3.1811161870e-2
-9.2955089476e-4 3.0701623305e-4 1.1531758508e-2
9.5051576908e-4 2.8576393457e-4 1.0760496512e-2
-3.4330060216e-4 -8.8154215077e-4 1.0153649521e-2
-8.6162760224e-4 4.9027082819e-5 9.0255738086e-3
-8.1338995495e-4 9.1240763662e-4 1.8807188503e-2
4.9815271039e-4 1.3188879630e-3 1.8195739764e-2
3.7071071701e-3 -1.5559283023e-3 2.9780685815e-2
4.9165139230e-3 -3.8298107581e-3 3.1789463939e-2
2.1797821027e-5 1.2073824349e-3 2.1698279138e-2
9.6745925005e-4 1.5447604141e-3 2.1767466663e-2
-4.6187859582e-4 1.3465933165e-3 1.2480803199e-2
6.7429593794e-4 1.2448792199e-3 1.2199494668e-2
3.1906457028e-3 -3.3120949845e-3 3.5265879556e-2
-3.4713133764e-5 -8.2839379367e-4 3.2746897834e-2
-4.4808308216e-4 -8.4933782370e-6 2.0670408638e-2
7.7792189834e-4 -1.0849772796e-3 1.9854568020e-2
4.8745132760e-4 -5.7953043644e-4 2.1362696284e-2
7.0362485154e-4 1.9093513060e-3 1.8902503106e-2
8.6923518935e-4 8.8825346804e-4 1.5152156369e-2
5.9020185416e-5 2.2736120661e-3 1.5876300176e-2
VECTORS E_imag double
0.0000000000e0 0.0000000000e0 0.0000000000e0
0.0000000000e0 0.0000000000e0 0.0000000000e0
0.0000000000e0 0.0000000000e0 0.0000000000e0
0.0000000000e0 0.0000000000e0 0.0000000000e0
0.0000000000e0 0.0000000000e0 0.0000000000e0
0.0000000000e0 0.0000000000e0 0.0000000000e0
0.0000000000e0 0.0000000000e0 0.0000000000e0
0.0000000000e0 0.0000000000e0 0.0000000000e0
0.0000000000e0 0.0000000000e0 0.0000000000e0
0.0000000000e0 0.0000000000e0 0.0000000000e0
0.0000000000e0 0.0000000000e0 0.0000000000e0
0.0000000000e0 0.0000000000e0 0.0000000000e0
0.0000000000e0 0.0000000000e0 0.0000000000e0
0.0000000000e0 0.0000000000e0 0.0000000000e0
0.0000000000e0 0.0000000000e0 0.0000000000e0
0.0000000000e0 0.0000000000e0 0.0000000000e0
0.0000000000e0 0.0000000000e0 0.0000000000e0
0.0000000000e0 0.0000000000e0 0.0000000000e0
0.0000000000e0 0.0000000000e0 0.0000000000e0
0.0000000000e0 0.0000000000e0 0.0000000000e0
0.0000000000e0 0.0000000000e0 0.0000000000e0
0.0000000000e0 0.0000000000e0 0.0000000000e0
0.0000000000e0 0.0000000000e0 0.0000000000e0
0.0000000000e0 0.0000000000e0 0.0000000000e0
0.0000000000e0 0.0000000000e0 0.0000000000e0
0.0000000000e0 0.0000000000e0 0.0000000000e0
0.0000000000e0 0.0000000000e0 0.0000000000e0
0.0000000000e0 0.0000000000e0 0.0000000000e0
0.0000000000e0 0.0000000000e0 0.0000000000e0
0.0000000000e0 0.0000000000e0 0.0000000000e0
0.0000000000e0 0.0000000000e0 0.0000000000e0
0.0000000000e0 0.0000000000e0 0.0000000000e0
0.0000000000e0 0.0000000000e0 0.0000000000e0
0.0000000000e0 0.0000000000e0 0.0000000000e0
0.0000000000e0 0.0000000000e0 0.0000000000e0
0.0000000000e0 0.0000000000e0 0.0000000000e0
0.0000000000e0 0.0000000000e0 0.0000000000e0
0.0000000000e0 0.0000000000e0 0.0000000000e0
0.0000000000e0 0.0000000000e0 0.0000000000e0
0.0000000000e0 0.0000000000e0 0.0000000000e0
0.0000000000e0 0.0000000000e0 0.0000000000e0
0.0000000000e0 0.0000000000e0 0.0000000000e0
0.0000000000e0 0.0000000000e0 0.0000000000e0
0.0000000000e0 0.0000000000e0 0.0000000000e0
0.0000000000e0 0.0000000000e0 0.0000000000e0
0.0000000000e0 0.0000000000e0 0.0000000000e0
0.0000000000e0 0.0000000000e0 0.0000000000e0
0.0000000000e0 0.0000000000e0 0.0000000000e0
0.0000000000e0 0.0000000000e0 0.0000000000e0
0.0000000000e0 0.0000000000e0 0.0000000000e0
0.0000000000e0 0.0000000000e0 0.0000000000e0
0.0000000000e0 0.0000000000e0 0.0000000000e0
0.0000000000e0 0.0000000000e0 0.0000000000e0
0.0000000000e0 0.0000000000e0 0.0000000000e0
0.0000000000e0 0.0000000000e0 0.0000000000e0
0.0000000000e0 0.0000000000e0 0.0000000000e0
0.0000000000e0 0.0000000000e0 0.0000000000e0
0.0000000000e0 0.0000000000e0 0.0000000000e0
0.0000000000e0 0.0000000000e0 0.0000000000e0
0.0000000000e0 0.0000000000e0 0.0000000000e0
0.0000000000e0 0.0000000000e0 0.0000000000e0
0.0000000000e0 0.0000000000e0 0.0000000000e0
0.0000000000e0 0.0000000000e0 0.0000000000e0
0.0000000000e0 0.0000000000e0 0.0000000000e0
0.0000000000e0 0.0000000000e0 0.0000000000e0
0.0000000000e0 0.0000000000e0 0.0000000000e0
0.0000000000e0 0.0000000000e0 0.0000000000e0
0.0000000000e0 0.0000000000e0 0.0000000000e0
0.0000000000e0 0.0000000000e0 0.0000000000e0
0.0000000000e0 0.0000000000e0 0.0000000000e0
0.0000000000e0 0.0000000000e0 0.0000000000e0
0.0000000000e0 0.0000000000e0 0.0000000000e0
0.0000000000e0 0.0000000000e0 0.0000000000e0
0.0000000000e0 0.0000000000e0 0.0000000000e0
0.0000000000e0 0.0000000000e0 0.0000000000e0
0.0000000000e0 0.0000000000e0 0.0000000000e0
0.0000000000e0 0.0000000000e0 0.0000000000e0
0.0000000000e0 0.0000000000e0 0.0000000000e0
0.0000000000e0 0.0000000000e0 0.0000000000e0
0.0000000000e0 0.0000000000e0 0.0000000000e0
0.0000000000e0 0.0000000000e0 0.0000000000e0
0.0000000000e0 0.0000000000e0 0.0000000000e0
0.0000000000e0 0.0000000000e0 0.0000000000e0
0.0000000000e0 0.0000000000e0 0.0000000000e0
0.0000000000e0 0.0000000000e0 0.0000000000e0
0.0000000000e0 0.0000000000e0 0.0000000000e0
0.0000000000e0 0.0000000000e0 0.0000000000e0
0.0000000000e0 0.0000000000e0 0.0000000000e0
0.0000000000e0 0.0000000000e0 0.0000000000e0
0.0000000000e0 0.0000000000e0 0.0000000000e0
0.0000000000e0 0.0000000000e0 0.0000000000e0
0.0000000000e0 0.0000000000e0 0.0000000000e0
0.0000000000e0 0.0000000000e0 0.0000000000e0
0.0000000000e0 0.0000000000e0 0.0000000000e0
0.0000000000e0 0.0000000000e0 0.0000000000e0
0.0000000000e0 0.0000000000e0 0.0000000000e0
0.0000000000e0 0.0000000000e0 0.0000000000e0
0.0000000000e0 0.0000000000e0 0.0000000000e0
0.0000000000e0 0.0000000000e0 0.0000000000e0
0.0000000000e0 0.0000000000e0 0.0000000000e0
0.0000000000e0 0.0000000000e0 0.0000000000e0
0.0000000000e0 0.0000000000e0 0.0000000000e0
0.0000000000e0 0.0000000000e0 0.0000000000e0
0.0000000000e0 0.0000000000e0 0.0000000000e0
0.0000000000e0 0.0000000000e0 0.0000000000e0
0.0000000000e0 0.0000000000e0 0.0000000000e0
0.0000000000e0 0.0000000000e0 0.0000000000e0
0.0000000000e0 0.0000000000e0 0.0000000000e0
0.0000000000e0 0.0000000000e0 0.0000000000e0
0.0000000000e0 0.0000000000e0 0.0000000000e0
0.0000000000e0 0.0000000000e0 0.0000000000e0
0.0000000000e0 0.0000000000e0 0.0000000000e0
0.0000000000e0 0.0000000000e0 0.0000000000e0
0.0000000000e0 0.0000000000e0 0.0000000000e0
0.0000000000e0 0.0000000000e0 0.0000000000e0
0.0000000000e0 0.0000000000e0 0.0000000000e0
0.0000000000e0 0.0000000000e0 0.0000000000e0
0.0000000000e0 0.0000000000e0 0.0000000000e0
0.0000000000e0 0.0000000000e0 0.0000000000e0
0.0000000000e0 0.0000000000e0 0.0000000000e0
0.0000000000e0 0.0000000000e0 0.0000000000e0
0.0000000000e0 0.0000000000e0 0.0000000000e0
0.0000000000e0 0.0000000000e0 0.0000000000e0
0.0000000000e0 0.0000000000e0 0.0000000000e0
0.0000000000e0 0.0000000000e0 0.0000000000e0
0.0000000000e0 0.0000000000e0 0.0000000000e0
0.0000000000e0 0.0000000000e0 0.0000000000e0
0.0000000000e0 0.0000000000e0 0.0000000000e0
0.0000000000e0 0.0000000000e0 0.0000000000e0
0.0000000000e0 0.0000000000e0 0.0000000000e0
0.0000000000e0 0.0000000000e0 0.0000000000e0
0.0000000000e0 0.0000000000e0 0.0000000000e0
0.0000000000e0 0.0000000000e0 0.0000000000e0
0.0000000000e0 0.0000000000e0 0.0000000000e0
0.0000000000e0 0.0000000000e0 0.0000000000e0
0.0000000000e0 0.0000000000e0 0.0000000000e0
0.0000000000e0 0.0000000000e0 0.0000000000e0
0.0000000000e0 0.0000000000e0 0.0000000000e0
0.0000000000e0 0.0000000000e0 0.0000000000e0
0.0000000000e0 0.0000000000e0 0.0000000000e0
0.0000000000e0 0.0000000000e0 0.0000000000e0
0.0000000000e0 0.0000000000e0 0.0000000000e0
0.0000000000e0 0.0000000000e0 0.0000000000e0
0.0000000000e0 0.0000000000e0 0.0000000000e0
0.0000000000e0 0.0000000000e0 0.0000000000e0
0.0000000000e0 0.0000000000e0 0.0000000000e0
0.0000000000e0 0.0000000000e0 0.0000000000e0
0.0000000000e0 0.0000000000e0 0.0000000000e0
0.0000000000e0 0.0000000000e0 0.0000000000e0
0.0000000000e0 0.0000000000e0 0.0000000000e0
0.0000000000e0 0.0000000000e0 0.0000000000e0
0.0000000000e0 0.0000000000e0 0.0000000000e0
0.0000000000e0 0.0000000000e0 0.0000000000e0
0.0000000000e0 0.0000000000e0 0.0000000000e0
0.0000000000e0 0.0000000000e0 0.0000000000e0
0.0000000000e0 0.0000000000e0 0.0000000000e0
0.0000000000e0 0.0000000000e0 0.0000000000e0
0.0000000000e0 0.0000000000e0 0.0000000000e0
0.0000000000e0 0.0000000000e0 0.0000000000e0
0.0000000000e0 0.0000000000e0 0.0000000000e0
0.0000000000e0 0.0000000000e0 0.0000000000e0
0.0000000000e0 0.0000000000e0 0.0000000000e0
0.0000000000e0 0.0000000000e0 0.0000000000e0
0.0000000000e0 0.0000000000e0 0.0000000000e0
0.0000000000e0 0.0000000000e0 0.0000000000e0
0.0000000000e0 0.0000000000e0 0.0000000000e0
0.0000000000e0 0.0000000000e0 0.0000000000e0
0.0000000000e0 0.0000000000e0 0.0000000000e0
0.0000000000e0 0.0000000000e0 0.0000000000e0
0.0000000000e0 0.0000000000e0 0.0000000000e0
0.0000000000e0 0.0000000000e0 0.0000000000e0
0.0000000000e0 0.0000000000e0 0.0000000000e0
0.0000000000e0 0.0000000000e0 0.0000000000e0
0.0000000000e0 0.0000000000e0 0.0000000000e0
0.0000000000e0 0.0000000000e0 0.0000000000e0
0.0000000000e0 0.0000000000e0 0.0000000000e0
0.0000000000e0 0.0000000000e0 0.0000000000e0
0.0000000000e0 0.0000000000e0 0.0000000000e0