# vtk DataFile Version 3.0
RapidFEM Mode 5 f=12.0906GHz
ASCII
DATASET UNSTRUCTURED_GRID
POINTS 242 double
0.0000000000e0 0.0000000000e0 1.0160000000e-2
0.0000000000e0 0.0000000000e0 0.0000000000e0
0.0000000000e0 3.0000000000e-2 1.0160000000e-2
0.0000000000e0 3.0000000000e-2 0.0000000000e0
2.2860000000e-2 0.0000000000e0 1.0160000000e-2
2.2860000000e-2 0.0000000000e0 0.0000000000e0
2.2860000000e-2 3.0000000000e-2 1.0160000000e-2
2.2860000000e-2 3.0000000000e-2 0.0000000000e0
0.0000000000e0 0.0000000000e0 3.3866666667e-3
0.0000000000e0 0.0000000000e0 6.7733333333e-3
0.0000000000e0 3.7500000000e-3 1.0160000000e-2
0.0000000000e0 7.5000000000e-3 1.0160000000e-2
0.0000000000e0 1.1250000000e-2 1.0160000000e-2
0.0000000000e0 1.5000000000e-2 1.0160000000e-2
0.0000000000e0 1.8750000000e-2 1.0160000000e-2
0.0000000000e0 2.2500000000e-2 1.0160000000e-2
0.0000000000e0 2.6250000000e-2 1.0160000000e-2
0.0000000000e0 3.0000000000e-2 3.3866666667e-3
0.0000000000e0 3.0000000000e-2 6.7733333333e-3
0.0000000000e0 3.7500000000e-3 0.0000000000e0
0.0000000000e0 7.5000000000e-3 0.0000000000e0
0.0000000000e0 1.1250000000e-2 0.0000000000e0
0.0000000000e0 1.5000000000e-2 0.0000000000e0
0.0000000000e0 1.8750000000e-2 0.0000000000e0
0.0000000000e0 2.2500000000e-2 0.0000000000e0
0.0000000000e0 2.6250000000e-2 0.0000000000e0
2.2860000000e-2 0.0000000000e0 3.3866666667e-3
2.2860000000e-2 0.0000000000e0 6.7733333333e-3
2.2860000000e-2 3.7500000000e-3 1.0160000000e-2
2.2860000000e-2 7.5000000000e-3 1.0160000000e-2
2.2860000000e-2 1.1250000000e-2 1.0160000000e-2
2.2860000000e-2 1.5000000000e-2 1.0160000000e-2
2.2860000000e-2 1.8750000000e-2 1.0160000000e-2
2.2860000000e-2 2.2500000000e-2 1.0160000000e-2
2.2860000000e-2 2.6250000000e-2 1.0160000000e-2
2.2860000000e-2 3.0000000000e-2 3.3866666667e-3
2.2860000000e-2 3.0000000000e-2 6.7733333333e-3
2.2860000000e-2 3.7500000000e-3 0.0000000000e0
2.2860000000e-2 7.5000000000e-3 0.0000000000e0
2.2860000000e-2 1.1250000000e-2 0.0000000000e0
2.2860000000e-2 1.5000000000e-2 0.0000000000e0
2.2860000000e-2 1.8750000000e-2 0.0000000000e0
2.2860000000e-2 2.2500000000e-2 0.0000000000e0
2.2860000000e-2 2.6250000000e-2 0.0000000000e0
3.8100000000e-3 0.0000000000e0 0.0000000000e0
7.6200000000e-3 0.0000000000e0 0.0000000000e0
1.1430000000e-2 0.0000000000e0 0.0000000000e0
1.5240000000e-2 0.0000000000e0 0.0000000000e0
1.9050000000e-2 0.0000000000e0 0.0000000000e0
3.8100000000e-3 0.0000000000e0 1.0160000000e-2
7.6200000000e-3 0.0000000000e0 1.0160000000e-2
1.1430000000e-2 0.0000000000e0 1.0160000000e-2
1.5240000000e-2 0.0000000000e0 1.0160000000e-2
1.9050000000e-2 0.0000000000e0 1.0160000000e-2
3.8100000000e-3 3.0000000000e-2 0.0000000000e0
7.6200000000e-3 3.0000000000e-2 0.0000000000e0
1.1430000000e-2 3.0000000000e-2 0.0000000000e0
1.5240000000e-2 3.0000000000e-2 0.0000000000e0
1.9050000000e-2 3.0000000000e-2 0.0000000000e0
3.8100000000e-3 3.0000000000e-2 1.0160000000e-2
7.6200000000e-3 3.0000000000e-2 1.0160000000e-2
1.1430000000e-2 3.0000000000e-2 1.0160000000e-2
1.5240000000e-2 3.0000000000e-2 1.0160000000e-2
1.9050000000e-2 3.0000000000e-2 1.0160000000e-2
0.0000000000e0 2.7067060633e-2 5.0800000000e-3
0.0000000000e0 2.9329393675e-3 5.0800000000e-3
0.0000000000e0 2.0607895740e-2 3.4149433368e-3
0.0000000000e0 1.3125000000e-2 3.2475952642e-3
0.0000000000e0 1.6875000000e-2 6.9124047358e-3
0.0000000000e0 9.3921042596e-3 6.7450566632e-3
0.0000000000e0 2.0575689701e-2 7.5387577184e-3
0.0000000000e0 1.6874109524e-2 3.0751560233e-3
0.0000000000e0 1.3125890476e-2 7.0848439767e-3
0.0000000000e0 9.4243102990e-3 2.6212422816e-3
0.0000000000e0 5.3249758464e-3 7.1684469476e-3
0.0000000000e0 2.4675024154e-2 2.9915530524e-3
0.0000000000e0 2.4145552764e-2 7.0464405194e-3
0.0000000000e0 5.8544472356e-3 3.1135594806e-3
0.0000000000e0 2.7479635784e-2 7.7520655419e-3
0.0000000000e0 2.7479635784e-2 2.4079344581e-3
0.0000000000e0 2.5203642158e-3 7.7520655419e-3
0.0000000000e0 2.5203642158e-3 2.4079344581e-3
2.2860000000e-2 2.7067060633e-2 5.0800000000e-3
2.2860000000e-2 2.9329393675e-3 5.0800000000e-3
2.2860000000e-2 2.0607895740e-2 3.4149433368e-3
2.2860000000e-2 1.3125000000e-2 3.2475952642e-3
2.2860000000e-2 1.6875000000e-2 6.9124047358e-3
2.2860000000e-2 9.3921042596e-3 6.7450566632e-3
2.2860000000e-2 2.0575689701e-2 7.5387577184e-3
2.2860000000e-2 1.6874109524e-2 3.0751560233e-3
2.2860000000e-2 1.3125890476e-2 7.0848439767e-3
2.2860000000e-2 9.4243102990e-3 2.6212422816e-3
2.2860000000e-2 5.3249758464e-3 7.1684469476e-3
2.2860000000e-2 2.4675024154e-2 2.9915530524e-3
2.2860000000e-2 2.4145552764e-2 7.0464405194e-3
2.2860000000e-2 5.8544472356e-3 3.1135594806e-3
2.2860000000e-2 2.7479635784e-2 2.4079344581e-3
2.2860000000e-2 2.7479635784e-2 7.7520655419e-3
2.2860000000e-2 2.5203642158e-3 7.7520655419e-3
2.2860000000e-2 2.5203642158e-3 2.4079344581e-3
2.9329393675e-3 0.0000000000e0 5.0800000000e-3
1.9927060633e-2 0.0000000000e0 5.0800000000e-3
9.5250000000e-3 0.0000000000e0 3.2995567884e-3
1.3335000000e-2 0.0000000000e0 6.8604432116e-3
1.3288060349e-2 0.0000000000e0 2.6642308317e-3
9.5719396507e-3 0.0000000000e0 7.4957691683e-3
1.7465697863e-2 0.0000000000e0 7.1978653226e-3
5.3943021370e-3 0.0000000000e0 2.9621346774e-3
1.6910301746e-2 0.0000000000e0 3.1611541587e-3
5.9496982536e-3 0.0000000000e0 6.9988458413e-3
2.5281752011e-3 0.0000000000e0 7.7655945654e-3
2.5281752011e-3 0.0000000000e0 2.3944054346e-3
2.0331824799e-2 0.0000000000e0 7.7655945654e-3
2.0331824799e-2 0.0000000000e0 2.3944054346e-3
2.9329393675e-3 3.0000000000e-2 5.0800000000e-3
1.9927060633e-2 3.0000000000e-2 5.0800000000e-3
9.5250000000e-3 3.0000000000e-2 3.2995567884e-3
1.3335000000e-2 3.0000000000e-2 6.8604432116e-3
1.3288060349e-2 3.0000000000e-2 2.6642308317e-3
9.5719396507e-3 3.0000000000e-2 7.4957691683e-3
1.7465697863e-2 3.0000000000e-2 7.1978653226e-3
5.3943021370e-3 3.0000000000e-2 2.9621346774e-3
1.6910301746e-2 3.0000000000e-2 3.1611541587e-3
5.9496982536e-3 3.0000000000e-2 6.9988458413e-3
2.5281752011e-3 3.0000000000e-2 7.7655945654e-3
2.5281752011e-3 3.0000000000e-2 2.3944054346e-3
2.0331824799e-2 3.0000000000e-2 7.7655945654e-3
2.0331824799e-2 3.0000000000e-2 2.3944054346e-3
3.0032597289e-3 1.7053382250e-2 0.0000000000e0
1.9374906205e-2 1.3140168730e-2 0.0000000000e0
1.3292324977e-2 2.6390097520e-2 0.0000000000e0
9.5349916220e-3 3.2987589966e-3 0.0000000000e0
1.9282143073e-2 2.0260904772e-2 0.0000000000e0
3.3990631681e-3 9.0777329865e-3 0.0000000000e0
1.6993391798e-2 3.2075459795e-3 0.0000000000e0
5.5706840137e-3 2.6774551281e-2 0.0000000000e0
1.3312591326e-2 3.2785812089e-3 0.0000000000e0
1.1435229781e-2 6.5801018339e-3 0.0000000000e0
7.0221190436e-3 6.8767844285e-3 0.0000000000e0
9.5482210217e-3 9.8627330247e-3 0.0000000000e0
1.3329378341e-2 9.8552977906e-3 0.0000000000e0
1.1442663086e-2 1.3123500598e-2 0.0000000000e0
7.7150351477e-3 1.3129967350e-2 0.0000000000e0
9.6645250455e-3 1.6332769384e-2 0.0000000000e0
1.3347048630e-2 1.6371376085e-2 0.0000000000e0
1.1441262234e-2 1.9616869481e-2 0.0000000000e0
8.0656326056e-3 1.9396484399e-2 0.0000000000e0
9.7574291791e-3 2.2918228652e-2 0.0000000000e0
1.5170836301e-2 1.9788578707e-2 0.0000000000e0
1.7106992305e-2 1.6592316327e-2 0.0000000000e0
1.6701906859e-2 2.3314854219e-2 0.0000000000e0
5.6802354321e-3 3.1827773814e-3 0.0000000000e0
1.5200355414e-2 6.5624135570e-3 0.0000000000e0
1.7104311409e-2 9.8670221071e-3 0.0000000000e0
1.9330824752e-2 6.1670243647e-3 0.0000000000e0
9.2384056136e-3 2.6583295217e-2 0.0000000000e0
1.5284216663e-2 1.3158280273e-2 0.0000000000e0
3.8333502594e-3 1.3112028103e-2 0.0000000000e0
2.9169526120e-3 2.0658918312e-2 0.0000000000e0
1.7211032325e-2 2.6909153486e-2 0.0000000000e0
3.0282716898e-3 2.4278122460e-2 0.0000000000e0
3.1513738996e-3 5.6064197490e-3 0.0000000000e0
1.3272751910e-2 2.2405725716e-2 0.0000000000e0
1.9926363821e-2 2.4391666377e-2 0.0000000000e0
6.1886758944e-3 2.2696242807e-2 0.0000000000e0
6.3313909733e-3 1.6128987380e-2 0.0000000000e0
2.0270458824e-2 1.6842117338e-2 0.0000000000e0
6.3399109015e-3 1.0257232482e-2 0.0000000000e0
2.0306008473e-2 9.5848430404e-3 0.0000000000e0
2.8124266069e-3 2.7969454326e-3 0.0000000000e0
2.0060936205e-2 2.7833688157e-3 0.0000000000e0
2.7164751199e-3 2.7280121283e-2 0.0000000000e0
2.0259599042e-2 2.7402075216e-2 0.0000000000e0
5.3011823629e-3 1.9186803030e-2 0.0000000000e0
3.4850937950e-3 1.6859831270e-2 1.0160000000e-2
1.9856740271e-2 1.2946617750e-2 1.0160000000e-2
1.3325008378e-2 2.6701241003e-2 1.0160000000e-2
9.5676750235e-3 3.6099024795e-3 1.0160000000e-2
1.9460936832e-2 2.0922267013e-2 1.0160000000e-2
3.5778569271e-3 9.7390952284e-3 1.0160000000e-2
1.7289315986e-2 3.2254487189e-3 1.0160000000e-2
5.8666082021e-3 2.6792454020e-2 1.0160000000e-2
9.5474086744e-3 2.6721418791e-2 1.0160000000e-2
1.1424770219e-2 2.3419898166e-2 1.0160000000e-2
1.5837880956e-2 2.3123215571e-2 1.0160000000e-2
1.3311778978e-2 2.0137266975e-2 1.0160000000e-2
9.5306216592e-3 2.0144702209e-2 1.0160000000e-2
1.1417336914e-2 1.6876499402e-2 1.0160000000e-2
1.5144964852e-2 1.6870032650e-2 1.0160000000e-2
1.3195474954e-2 1.3667230616e-2 1.0160000000e-2
9.5129513703e-3 1.3628623915e-2 1.0160000000e-2
1.1418737766e-2 1.0383130519e-2 1.0160000000e-2
1.4794367394e-2 1.0603515601e-2 1.0160000000e-2
1.3102570821e-2 7.0817713478e-3 1.0160000000e-2
7.6891636986e-3 1.0211421293e-2 1.0160000000e-2
5.7530076952e-3 1.3407683673e-2 1.0160000000e-2
6.1580931408e-3 6.6851457810e-3 1.0160000000e-2
1.7179764568e-2 2.6817222619e-2 1.0160000000e-2
7.6596445855e-3 2.3437586443e-2 1.0160000000e-2
5.7556885912e-3 2.0132977893e-2 1.0160000000e-2
3.5291752478e-3 2.3832975635e-2 1.0160000000e-2
1.3621594386e-2 3.4167047832e-3 1.0160000000e-2
7.5757833375e-3 1.6841719727e-2 1.0160000000e-2
1.9943047388e-2 9.3410816876e-3 1.0160000000e-2
1.9026649741e-2 1.6887971897e-2 1.0160000000e-2
5.6489676750e-3 3.0908465141e-3 1.0160000000e-2
1.9831728310e-2 5.7218775397e-3 1.0160000000e-2
1.9708626100e-2 2.4393580251e-2 1.0160000000e-2
9.5872480899e-3 7.5942742841e-3 1.0160000000e-2
[...]
POINT_DATA 242
VECTORS E_real double
0.0000000000e0 0.0000000000e0 0.0000000000e0
0.0000000000e0 0.0000000000e0 0.0000000000e0
-5.0553934434e-18 -2.0637076467e-18 -8.5126100698e-18
-4.6455892626e-19 -4.6014973572e-19 -1.0896089162e-18
-1.4683182047e-19 1.4301718747e-18 -3.4093050710e-18
2.6507845145e-18 -3.8971776120e-19 4.0791421722e-19
5.8738767671e-17 -3.3163494526e-17 6.9949432728e-17
6.6301226260e-18 2.3570998337e-18 -9.6010625924e-17
0.0000000000e0 0.0000000000e0 0.0000000000e0
0.0000000000e0 0.0000000000e0 0.0000000000e0
-2.7448817916e-18 0.0000000000e0 0.0000000000e0
0.0000000000e0 0.0000000000e0 1.4750592234e-18
-2.4907346188e-19 0.0000000000e0 0.0000000000e0
9.8656286679e-19 0.0000000000e0 0.0000000000e0
-1.1158262198e-18 2.2718397079e-19 -7.6767786485e-19
-4.7783886294e-18 -2.1775491062e-18 2.9056254048e-18
5.9556252020e-18 0.0000000000e0 0.0000000000e0
-3.3880405164e-18 3.9012115675e-18 -9.1058411036e-18
-5.8345580372e-18 4.9790216131e-18 1.1975656399e-17
0.0000000000e0 0.0000000000e0 0.0000000000e0
0.0000000000e0 0.0000000000e0 0.0000000000e0
0.0000000000e0 0.0000000000e0 0.0000000000e0
0.0000000000e0 0.0000000000e0 0.0000000000e0
0.0000000000e0 0.0000000000e0 1.9820764606e-18
0.0000000000e0 0.0000000000e0 2.2537197322e-18
0.0000000000e0 0.0000000000e0 2.0568976097e-18
0.0000000000e0 -1.5771386667e-18 0.0000000000e0
0.0000000000e0 6.4224862463e-18 0.0000000000e0
3.4595368112e-17 2.8712194492e-18 -1.7719690742e-17
-1.2567089224e-17 -9.4165922775e-18 -3.6334169192e-18
-2.5800042072e-18 -7.2344329904e-35 7.0120739400e-17
1.7401199289e-17 -1.1960291785e-17 -5.4871936871e-17
7.1696160694e-18 5.7601549606e-18 1.2163351690e-17
9.4137164742e-19 5.8364686805e-18 -2.6947415150e-17
5.1875586813e-18 -5.6280721014e-31 3.8912698426e-17
7.3508233826e-18 -5.3343936392e-17 -3.9316909580e-17
2.6697612784e-17 1.8054951168e-16 2.0442499798e-16
2.8089702814e-18 0.0000000000e0 4.2793400457e-33
0.0000000000e0 0.0000000000e0 2.6162508814e-18
0.0000000000e0 0.0000000000e0 -1.4500287395e-18
-3.5526423212e-18 1.1701425030e-17 1.5444111749e-17
5.9581410505e-18 3.9469574408e-18 -7.0793064324e-18
0.0000000000e0 0.0000000000e0 2.9976453853e-18
-1.2184644347e-16 -1.8628506349e-16 -2.7485512647e-19
0.0000000000e0 0.0000000000e0 0.0000000000e0
0.0000000000e0 0.0000000000e0 0.0000000000e0
0.0000000000e0 0.0000000000e0 -5.3577422253e-19
0.0000000000e0 0.0000000000e0 0.0000000000e0
0.0000000000e0 0.0000000000e0 0.0000000000e0
2.9782736793e-18 6.2461045864e-19 -1.5943937501e-18
0.0000000000e0 0.0000000000e0 0.0000000000e0
0.0000000000e0 1.2826727767e-18 0.0000000000e0
-3.8829422243e-18 2.5001313483e-17 2.1096890147e-18
0.0000000000e0 -5.6731806177e-18 0.0000000000e0
3.7407193830e-18 -2.4806206332e-18 -2.2873768360e-18
0.0000000000e0 0.0000000000e0 -6.4667677865e-19
0.0000000000e0 0.0000000000e0 2.6506908907e-18
0.0000000000e0 0.0000000000e0 -1.1222007720e-17
0.0000000000e0 0.0000000000e0 5.1464460941e-17
2.4020294823e-17 8.3578061431e-17 8.7696777644e-18
-3.1504785792e-18 2.6558415994e-17 -1.1045676981e-17
-6.5565937835e-18 3.6168662448e-17 4.5544098653e-17
7.9493008357e-18 2.0322955098e-16 4.1864873454e-17
-7.6974046324e-16 -9.9832682632e-16 -3.3453543299e-16
3.3691535657e-4 -3.0978654689e-3 -4.7831997225e-4
2.6347568866e-2 1.9985856394e-2 3.0858777992e-3
-2.1871864038e-3 4.7901195064e-3 -1.2837332583e-4
-3.6829152062e-3 3.7850130634e-4 -1.8260822344e-3
-3.3249628610e-3 1.6599795732e-5 -9.8076795050e-5
-1.5933792027e-3 6.4887572014e-5 6.2331635255e-4
-1.2208116987e-3 3.2528836646e-3 -1.2031489263e-4
-3.6413727871e-3 1.2426705494e-3 -7.6086349896e-4
-3.1739918206e-3 3.7365203331e-4 1.6658940617e-3
-4.0889756956e-3 6.8916750476e-4 -9.0401484911e-4
1.6655512684e-2 -3.2042275750e-2 -1.2893265974e-2
-4.3483653211e-4 2.2667627959e-4 2.1774744750e-3
6.3097219075e-4 -6.3135125875e-5 -4.5780190964e-4
1.5139721198e-2 -3.3257701400e-3 1.5714286480e-2
-1.2323671582e-3 -2.0371392291e-3 -3.6538035730e-3
1.5395250236e-3 -2.5168968399e-3 8.0235224550e-4
1.4702406694e-2 2.0275169657e-2 -2.4526869910e-2
1.9741037869e-2 2.4535508246e-2 8.4152561072e-3
-3.5132900382e-2 -2.5959869876e-2 -4.0082838855e-3
-3.8790100762e-3 7.1037136010e-3 1.0968352650e-3
5.2904335683e-3 6.5802064602e-5 6.3210105765e-4
2.5607928082e-3 -2.3980127955e-4 1.4168211059e-3
3.2541091279e-3 4.0190027913e-4 -8.5208213748e-4
2.1910068128e-3 -5.3757560045e-3 3.2207780879e-4
2.0267159471e-3 -6.0716471246e-4 2.4961648741e-3
2.7595248841e-3 1.2788032114e-18 1.2731240526e-17
1.8750811007e-3 -1.1363019375e-5 1.2486365273e-4
1.5835242521e-3 -6.4243620824e-3 6.7287813599e-5
-1.2977857440e-3 -2.4742434244e-4 -2.3767823927e-3
-1.9885002335e-2 4.1464663727e-2 1.7287899966e-2
-2.1241397534e-2 3.8774442868e-3 -1.8320950566e-2
-2.4877827323e-3 2.3993433601e-4 1.7397984987e-3
-1.8402344550e-2 -2.4409219947e-2 2.8123794262e-2
-2.4478144372e-2 -3.3887771213e-2 -9.4586391479e-3
-1.1968276239e-3 3.8872858198e-3 -2.5136572182e-3
-4.6253523409e-4 4.9693157474e-3 7.4495424871e-3
9.2668323136e-3 2.4817275121e-2 1.3966671309e-3
1.0175277326e-3 5.1846341251e-3 -1.5335850383e-4
-2.7502628219e-2 6.5618630254e-3 3.0764976730e-4
1.8872497013e-4 1.2708153740e-4 1.1178253376e-3
7.4358114646e-4 -1.7575491537e-3 -1.9830418500e-3
-3.1618229426e-2 1.7655723734e-3 -8.5050943390e-3
4.6295219040e-3 8.9712371604e-4 -3.4301249757e-3
-1.2965949530e-3 1.9267086304e-2 1.5872824650e-2
6.0324292837e-4 2.0295382700e-3 2.6918982982e-3
1.8334346160e-3 1.5313796901e-2 -1.3364522059e-2
1.1520979302e-2 1.4345928862e-2 -2.1263749201e-2
2.5630768497e-2 2.4708840679e-2 -3.8629869072e-3
-1.1082359564e-3 3.5040368381e-3 1.6702975527e-4
-3.3962227413e-3 3.4158440963e-3 -5.1186775710e-4
-2.4014162389e-4 -3.7873130078e-3 3.6193372394e-5
-1.4327150228e-2 -3.0104495309e-2 -2.1593419548e-3
1.3559580660e-4 -1.7647085867e-3 8.0313923580e-4
3.2020129472e-2 -7.2518236054e-3 -3.5818341807e-4
3.6975166817e-2 -7.7858822949e-4 8.9323706359e-3
-3.8079188958e-4 2.2172940549e-3 1.2036647946e-3
1.5453206239e-3 -2.3980560847e-2 -1.8917706902e-2
-6.3155003105e-3 -2.0439675616e-3 2.2911580392e-3
-2.3362726212e-3 -1.7766944228e-2 1.7029877537e-2
-3.1695421336e-4 -2.2073264191e-3 -1.4143696800e-3
-2.6678548749e-3 -1.1298320791e-3 -4.0209049734e-4
2.3194759719e-3 -2.9817366062e-3 -3.4958395071e-4
-3.2143051107e-2 -2.8070093607e-2 4.8444971753e-3
-1.9198438673e-2 -1.8333765028e-2 2.4097427117e-2
-5.2153118224e-3 -1.0983993816e-3 -8.6717863304e-4
0.0000000000e0 0.0000000000e0 -1.1549630432e-3
3.4492055767e-2 -2.3089433988e-3 1.4964865848e-3
-3.2060705325e-2 2.7769890490e-3 1.5073476874e-3
-6.4366520099e-4 5.6027081683e-3 -5.4731852330e-3
-9.4961206436e-4 1.0222461406e-4 -4.6933236390e-4
6.7258295221e-3 3.5946745329e-3 1.5227325470e-3
-5.9135986467e-3 1.0563710871e-3 1.0866626473e-3
-2.9580263561e-5 -5.5378912894e-3 -2.1991672259e-3
-5.4254126908e-4 3.1376863460e-4 -2.2603823015e-3
-1.6625367014e-2 -1.1676112892e-2 6.5120756487e-3
2.9678926775e-6 1.5093094520e-3 -4.1525168996e-3
3.0008075289e-6 1.5260481625e-3 -2.9432480445e-3
-1.8452332324e-4 1.0819489559e-4 -2.0755561451e-3
3.4986721713e-3 1.6141664010e-3 -4.3540884773e-4
-2.1095931347e-5 3.4505288030e-4 -3.5526966298e-3
-5.5129805832e-4 -3.3237632415e-4 -2.1825944204e-3
-2.0548790920e-3 -1.2066456901e-3 -4.3467504563e-3
-1.9832626457e-4 2.6147439441e-3 -3.0082076805e-3
-1.3632413440e-3 6.5488203250e-4 -1.7728583779e-3
2.6923149792e-3 -1.1689739452e-3 -2.8198507730e-3
0.0000000000e0 0.0000000000e0 -5.5579697694e-4
-1.4670977241e-3 1.5783572487e-3 -5.6050453306e-3
0.0000000000e0 0.0000000000e0 1.7304984087e-2
7.6626011748e-3 4.0953397954e-3 2.4203432972e-3
-2.4894540984e-5 -2.8246169972e-4 -2.5165553806e-4
6.4018113311e-3 -1.8265867172e-3 2.8189670295e-3
1.4406924175e-4 2.7628189032e-3 -2.5840996463e-3
-1.2666422478e-4 -5.9576773969e-4 -1.2351643797e-3
0.0000000000e0 0.0000000000e0 2.7104645548e-4
5.3704866686e-4 8.6980104352e-4 -2.1436214341e-3
1.8445971861e-3 -1.1408256613e-2 2.0445746642e-2
-7.5716479481e-4 2.3288790350e-5 1.7669072952e-3
8.0965728173e-3 -2.4669900244e-2 1.4505227063e-2
0.0000000000e0 0.0000000000e0 -3.8244223767e-3
-1.5025024999e-2 3.3593452021e-2 1.3714723104e-2
0.0000000000e0 0.0000000000e0 -1.6290636231e-3
-1.2223463314e-2 -5.6394834440e-3 -8.6251624652e-3
-1.1349049714e-3 1.5403898848e-3 2.9572045619e-3
0.0000000000e0 0.0000000000e0 -5.8439329077e-3
2.1117536607e-3 -8.2121003805e-3 -1.6763445379e-3
8.8715933109e-3 9.8360292704e-3 1.5296344662e-2
1.2542677119e-3 4.8557629653e-4 2.6644872118e-3
5.3750508701e-4 -1.3663809028e-3 1.4750558752e-3
-1.8499323938e-2 -1.5270435274e-2 1.8165771729e-2
3.1504272808e-4 5.1024145584e-4 -2.9118885997e-3
-9.3269077312e-19 6.6518912870e-19 1.1310037427e-3
-2.0716948477e-17 -9.1471358135e-18 1.7046610889e-3
3.7608369840e-2 -1.9168654331e-3 -2.0352344759e-3
-2.9100887657e-2 3.6760527717e-3 -1.2364142766e-3
3.2165164864e-3 -3.4625419029e-4 2.2308513515e-3
1.0121795204e-3 -8.8103977933e-3 3.9063761547e-3
7.1265874663e-3 1.1990504780e-3 -2.1154956472e-3
-5.8680864402e-3 -3.1362467357e-3 -2.3991557927e-4
1.9742768965e-5 3.6961573401e-3 2.6976302699e-3
1.2038686128e-3 -6.9623498229e-4 1.9500919585e-3
1.6945159456e-2 1.1900705387e-2 -9.8142044339e-3
-2.2133507372e-6 -1.1255902929e-3 2.7677008757e-3
-1.4566461727e-6 -7.4077134035e-4 2.2364272973e-3
2.3384685835e-4 -1.3711565551e-4 4.4355223424e-3
6.4361448977e-4 2.9694147772e-4 2.8401448445e-3
2.4219464187e-5 -3.9614254235e-4 4.3503043967e-3
2.7867938939e-4 1.6801515925e-4 1.4835729560e-3
3.3599709298e-3 1.9730087562e-3 3.0623790230e-3
6.0679823053e-5 -8.0000599115e-4 2.9706467591e-3
1.0282880047e-3 -4.9397514347e-4 1.2920831361e-3
-2.3935951013e-3 1.0392730161e-3 2.8989471525e-3
-2.3613587619e-17 4.9356797996e-18 1.7402942253e-3
-3.1351999551e-3 -8.0549467000e-3 3.1232853318e-3
5.7243427759e-17 -1.6315809229e-17 -2.1730299002e-2
-5.8975051965e-3 -3.1519698304e-3 -1.9437185880e-3
4.4138683742e-5 5.0081211142e-4 -1.2074970631e-4
-4.0485592108e-3 1.1551487690e-3 -1.6801810621e-3
-3.9180974827e-4 -7.5137438488e-3 1.0415824656e-3
4.8757897073e-4 3.9303713780e-3 -3.1922153329e-4
1.7428442376e-4 2.8227008652e-4 2.2498672550e-3
-4.1842081357e-18 -3.1884134232e-17 -6.7870194616e-5
-1.6764730783e-3 1.0368461595e-2 -1.7122121725e-2
1.6370520732e-3 -5.0352265167e-5 -3.0004693670e-3
-9.8879534981e-3 3.0128158162e-2 -1.7866112035e-2
1.0940391259e-17 -6.5834778101e-18 4.0648483127e-3
1.2974171213e-2 -3.1633993897e-2 -1.2653537906e-2
1.9659045984e-17 -3.4620407522e-17 1.5590447926e-3
1.1300717442e-2 5.2137603951e-3 7.1802208556e-3
-4.1100603361e-3 -1.1881514861e-3 1.1812842010e-3
-6.4263015273e-18 -4.4734320526e-17 2.9512109843e-3
-4.8299573960e-3 2.9606976061e-3 5.7894192818e-5
-1.2821163118e-2 -1.3533655396e-2 -1.8991546149e-2
-1.0626670834e-4 1.1951832456e-3 -2.4399262117e-3
-1.3766376302e-3 -1.2540149651e-3 -2.2288830728e-3
1.5630990295e-2 1.5479853216e-2 -1.5020202601e-2
4.1646870073e-4 6.7451039885e-4 4.3239623225e-3
4.7524389895e-3 2.9286388549e-3 2.1141020519e-3
-3.6100189378e-3 -2.8120397010e-3 -3.3968544652e-3
-7.8243181481e-2 1.7732965284e-2 -2.8922683861e-2
6.5444371959e-2 -1.6547708640e-2 2.2591914960e-2
-5.6218152073e-3 -1.0992206393e-2 -2.4529633030e-3
4.6003780422e-3 1.3138550477e-2 -2.3448308155e-3
9.0800294231e-3 -8.1881442975e-4 4.2761174134e-4
-1.6331282486e-3 -2.9084080029e-3 -2.1551846043e-3
6.6058363088e-3 -7.0837003240e-3 9.1199230799e-3
-3.4935457415e-3 2.5788236898e-3 -4.7337297865e-3
-6.0603399495e-3 -6.8845557397e-5 1.4362309856e-3
6.7715808325e-3 -1.6121928901e-3 -2.8556560838e-3
-1.1879436576e-3 2.1050372445e-4 6.9010060245e-4
3.6556791596e-3 -3.4666914965e-4 -1.1647471652e-3
-4.9638613489e-3 1.2602035286e-3 -4.2761853828e-3
8.5148063251e-3 -1.5864019446e-3 5.6734528222e-3
1.0103107025e-2 -4.2405133017e-3 -2.9765132450e-4
3.0517395992e-6 -1.5983034136e-3 -4.0895684166e-3
8.0147995142e-4 -3.6880001507e-3 2.9878537643e-4
-5.0706486766e-3 4.0372280848e-3 -2.4010900207e-4
-4.6231858833e-3 6.0407482429e-3 -8.6603575892e-4
4.6741439797e-3 -3.4138870824e-3 -1.7850580821e-4
VECTORS E_imag double
0.0000000000e0 0.0000000000e0 0.0000000000e0
0.0000000000e0 0.0000000000e0 0.0000000000e0
0.0000000000e0 0.0000000000e0 0.0000000000e0
0.0000000000e0 0.0000000000e0 0.0000000000e0
0.0000000000e0 0.0000000000e0 0.0000000000e0
0.0000000000e0 0.0000000000e0 0.0000000000e0
0.0000000000e0 0.0000000000e0 0.0000000000e0
0.0000000000e0 0.0000000000e0 0.0000000000e0
0.0000000000e0 0.0000000000e0 0.0000000000e0
0.0000000000e0 0.0000000000e0 0.0000000000e0
0.0000000000e0 0.0000000000e0 0.0000000000e0
0.0000000000e0 0.0000000000e0 0.0000000000e0
0.0000000000e0 0.0000000000e0 0.0000000000e0
0.0000000000e0 0.0000000000e0 0.0000000000e0
0.0000000000e0 0.0000000000e0 0.0000000000e0
0.0000000000e0 0.0000000000e0 0.0000000000e0
0.0000000000e0 0.0000000000e0 0.0000000000e0
0.0000000000e0 0.0000000000e0 0.0000000000e0
0.0000000000e0 0.0000000000e0 0.0000000000e0
0.0000000000e0 0.0000000000e0 0.0000000000e0
0.0000000000e0 0.0000000000e0 0.0000000000e0
0.0000000000e0 0.0000000000e0 0.0000000000e0
0.0000000000e0 0.0000000000e0 0.0000000000e0
0.0000000000e0 0.0000000000e0 0.0000000000e0
0.0000000000e0 0.0000000000e0 0.0000000000e0
0.0000000000e0 0.0000000000e0 0.0000000000e0
0.0000000000e0 0.0000000000e0 0.0000000000e0
0.0000000000e0 0.0000000000e0 0.0000000000e0
0.0000000000e0 0.0000000000e0 0.0000000000e0
0.0000000000e0 0.0000000000e0 0.0000000000e0
0.0000000000e0 0.0000000000e0 0.0000000000e0
0.0000000000e0 0.0000000000e0 0.0000000000e0
0.0000000000e0 0.0000000000e0 0.0000000000e0
0.0000000000e0 0.0000000000e0 0.0000000000e0
0.0000000000e0 0.0000000000e0 0.0000000000e0
0.0000000000e0 0.0000000000e0 0.0000000000e0
0.0000000000e0 0.0000000000e0 0.0000000000e0
0.0000000000e0 0.0000000000e0 0.0000000000e0
0.0000000000e0 0.0000000000e0 0.0000000000e0
0.0000000000e0 0.0000000000e0 0.0000000000e0
0.0000000000e0 0.0000000000e0 0.0000000000e0
0.0000000000e0 0.0000000000e0 0.0000000000e0
0.0000000000e0 0.0000000000e0 0.0000000000e0
0.0000000000e0 0.0000000000e0 0.0000000000e0
0.0000000000e0 0.0000000000e0 0.0000000000e0
0.0000000000e0 0.0000000000e0 0.0000000000e0
0.0000000000e0 0.0000000000e0 0.0000000000e0
0.0000000000e0 0.0000000000e0 0.0000000000e0
0.0000000000e0 0.0000000000e0 0.0000000000e0
0.0000000000e0 0.0000000000e0 0.0000000000e0
0.0000000000e0 0.0000000000e0 0.0000000000e0
0.0000000000e0 0.0000000000e0 0.0000000000e0
0.0000000000e0 0.0000000000e0 0.0000000000e0
0.0000000000e0 0.0000000000e0 0.0000000000e0
0.0000000000e0 0.0000000000e0 0.0000000000e0
0.0000000000e0 0.0000000000e0 0.0000000000e0
0.0000000000e0 0.0000000000e0 0.0000000000e0
0.0000000000e0 0.0000000000e0 0.0000000000e0
0.0000000000e0 0.0000000000e0 0.0000000000e0
0.0000000000e0 0.0000000000e0 0.0000000000e0
0.0000000000e0 0.0000000000e0 0.0000000000e0
0.0000000000e0 0.0000000000e0 0.0000000000e0
0.0000000000e0 0.0000000000e0 0.0000000000e0
0.0000000000e0 0.0000000000e0 0.0000000000e0
0.0000000000e0 0.0000000000e0 0.0000000000e0
0.0000000000e0 0.0000000000e0 0.0000000000e0
0.0000000000e0 0.0000000000e0 0.0000000000e0
0.0000000000e0 0.0000000000e0 0.0000000000e0
0.0000000000e0 0.0000000000e0 0.0000000000e0
0.0000000000e0 0.0000000000e0 0.0000000000e0
0.0000000000e0 0.0000000000e0 0.0000000000e0
0.0000000000e0 0.0000000000e0 0.0000000000e0
0.0000000000e0 0.0000000000e0 0.0000000000e0
0.0000000000e0 0.0000000000e0 0.0000000000e0
0.0000000000e0 0.0000000000e0 0.0000000000e0
0.0000000000e0 0.0000000000e0 0.0000000000e0
0.0000000000e0 0.0000000000e0 0.0000000000e0
0.0000000000e0 0.0000000000e0 0.0000000000e0
0.0000000000e0 0.0000000000e0 0.0000000000e0
0.0000000000e0 0.0000000000e0 0.0000000000e0
0.0000000000e0 0.0000000000e0 0.0000000000e0
0.0000000000e0 0.0000000000e0 0.0000000000e0
0.0000000000e0 0.0000000000e0 0.0000000000e0
0.0000000000e0 0.0000000000e0 0.0000000000e0
0.0000000000e0 0.0000000000e0 0.0000000000e0
0.0000000000e0 0.0000000000e0 0.0000000000e0
0.0000000000e0 0.0000000000e0 0.0000000000e0
0.0000000000e0 0.0000000000e0 0.0000000000e0
0.0000000000e0 0.0000000000e0 0.0000000000e0
0.0000000000e0 0.0000000000e0 0.0000000000e0
0.0000000000e0 0.0000000000e0 0.0000000000e0
0.0000000000e0 0.0000000000e0 0.0000000000e0
0.0000000000e0 0.0000000000e0 0.0000000000e0
0.0000000000e0 0.0000000000e0 0.0000000000e0
0.0000000000e0 0.0000000000e0 0.0000000000e0
0.0000000000e0 0.0000000000e0 0.0000000000e0
0.0000000000e0 0.0000000000e0 0.0000000000e0
0.0000000000e0 0.0000000000e0 0.0000000000e0
0.0000000000e0 0.0000000000e0 0.0000000000e0
0.0000000000e0 0.0000000000e0 0.0000000000e0
0.0000000000e0 0.0000000000e0 0.0000000000e0
0.0000000000e0 0.0000000000e0 0.0000000000e0
0.0000000000e0 0.0000000000e0 0.0000000000e0
0.0000000000e0 0.0000000000e0 0.0000000000e0
0.0000000000e0 0.0000000000e0 0.0000000000e0
0.0000000000e0 0.0000000000e0 0.0000000000e0
0.0000000000e0 0.0000000000e0 0.0000000000e0
0.0000000000e0 0.0000000000e0 0.0000000000e0
0.0000000000e0 0.0000000000e0 0.0000000000e0
0.0000000000e0 0.0000000000e0 0.0000000000e0
0.0000000000e0 0.0000000000e0 0.0000000000e0
0.0000000000e0 0.0000000000e0 0.0000000000e0
0.0000000000e0 0.0000000000e0 0.0000000000e0
0.0000000000e0 0.0000000000e0 0.0000000000e0
0.0000000000e0 0.0000000000e0 0.0000000000e0
0.0000000000e0 0.0000000000e0 0.0000000000e0
0.0000000000e0 0.0000000000e0 0.0000000000e0
0.0000000000e0 0.0000000000e0 0.0000000000e0
0.0000000000e0 0.0000000000e0 0.0000000000e0
0.0000000000e0 0.0000000000e0 0.0000000000e0
0.0000000000e0 0.0000000000e0 0.0000000000e0
0.0000000000e0 0.0000000000e0 0.0000000000e0
0.0000000000e0 0.0000000000e0 0.0000000000e0
0.0000000000e0 0.0000000000e0 0.0000000000e0
0.0000000000e0 0.0000000000e0 0.0000000000e0
0.0000000000e0 0.0000000000e0 0.0000000000e0
0.0000000000e0 0.0000000000e0 0.0000000000e0
0.0000000000e0 0.0000000000e0 0.0000000000e0
0.0000000000e0 0.0000000000e0 0.0000000000e0
0.0000000000e0 0.0000000000e0 0.0000000000e0
0.0000000000e0 0.0000000000e0 0.0000000000e0
0.0000000000e0 0.0000000000e0 0.0000000000e0
0.0000000000e0 0.0000000000e0 0.0000000000e0
0.0000000000e0 0.0000000000e0 0.0000000000e0
0.0000000000e0 0.0000000000e0 0.0000000000e0
0.0000000000e0 0.0000000000e0 0.0000000000e0
0.0000000000e0 0.0000000000e0 0.0000000000e0
0.0000000000e0 0.0000000000e0 0.0000000000e0
0.0000000000e0 0.0000000000e0 0.0000000000e0
0.0000000000e0 0.0000000000e0 0.0000000000e0
0.0000000000e0 0.0000000000e0 0.0000000000e0
0.0000000000e0 0.0000000000e0 0.0000000000e0
0.0000000000e0 0.0000000000e0 0.0000000000e0
0.0000000000e0 0.0000000000e0 0.0000000000e0
0.0000000000e0 0.0000000000e0 0.0000000000e0
0.0000000000e0 0.0000000000e0 0.0000000000e0
0.0000000000e0 0.0000000000e0 0.0000000000e0
0.0000000000e0 0.0000000000e0 0.0000000000e0
0.0000000000e0 0.0000000000e0 0.0000000000e0
0.0000000000e0 0.0000000000e0 0.0000000000e0
0.0000000000e0 0.0000000000e0 0.0000000000e0
0.0000000000e0 0.0000000000e0 0.0000000000e0
0.0000000000e0 0.0000000000e0 0.0000000000e0
0.0000000000e0 0.0000000000e0 0.0000000000e0
0.0000000000e0 0.0000000000e0 0.0000000000e0
0.0000000000e0 0.0000000000e0 0.0000000000e0
0.0000000000e0 0.0000000000e0 0.0000000000e0
0.0000000000e0 0.0000000000e0 0.0000000000e0
0.0000000000e0 0.0000000000e0 0.0000000000e0
0.0000000000e0 0.0000000000e0 0.0000000000e0
0.0000000000e0 0.0000000000e0 0.0000000000e0
0.0000000000e0 0.0000000000e0 0.0000000000e0
0.0000000000e0 0.0000000000e0 0.0000000000e0
0.0000000000e0 0.0000000000e0 0.0000000000e0
0.0000000000e0 0.0000000000e0 0.0000000000e0
0.0000000000e0 0.0000000000e0 0.0000000000e0
0.0000000000e0 0.0000000000e0 0.0000000000e0
0.0000000000e0 0.0000000000e0 0.0000000000e0
0.0000000000e0 0.0000000000e0 0.0000000000e0
0.0000000000e0 0.0000000000e0 0.0000000000e0
0.0000000000e0 0.0000000000e0 0.0000000000e0
0.0000000000e0 0.0000000000e0 0.0000000000e0
0.0000000000e0 0.0000000000e0 0.0000000000e0
0.0000000000e0 0.0000000000e0 0.0000000000e0
0.0000000000e0 0.0000000000e0 0.0000000000e0
0.0000000000e0 0.0000000000e0 0.0000000000e0
0.0000000000e0 0.0000000000e0 0.0000000000e0