# vtk DataFile Version 3.0
RapidFEM f=1.0000e9Hz
ASCII
DATASET UNSTRUCTURED_GRID
POINTS 9292 double
1.3900000000e-5 -1.1100000000e-5 3.0250000000e-4
1.4900000000e-5 -1.1100000000e-5 3.0250000000e-4
1.4900000000e-5 -1.0100000000e-5 3.0250000000e-4
1.3900000000e-5 -1.0100000000e-5 3.0250000000e-4
1.3900000000e-5 -1.1100000000e-5 3.0310000000e-4
1.4900000000e-5 -1.1100000000e-5 3.0310000000e-4
1.4900000000e-5 -1.0100000000e-5 3.0310000000e-4
1.3900000000e-5 -1.0100000000e-5 3.0310000000e-4
1.3900000000e-5 -9.3000000000e-6 3.0250000000e-4
1.4900000000e-5 -9.3000000000e-6 3.0250000000e-4
1.4900000000e-5 -8.3000000000e-6 3.0250000000e-4
1.3900000000e-5 -8.3000000000e-6 3.0250000000e-4
1.3900000000e-5 -9.3000000000e-6 3.0310000000e-4
1.4900000000e-5 -9.3000000000e-6 3.0310000000e-4
1.4900000000e-5 -8.3000000000e-6 3.0310000000e-4
1.3900000000e-5 -8.3000000000e-6 3.0310000000e-4
1.3900000000e-5 -7.5000000000e-6 3.0250000000e-4
1.4900000000e-5 -7.5000000000e-6 3.0250000000e-4
1.4900000000e-5 -6.5000000000e-6 3.0250000000e-4
1.3900000000e-5 -6.5000000000e-6 3.0250000000e-4
1.3900000000e-5 -7.5000000000e-6 3.0310000000e-4
1.4900000000e-5 -7.5000000000e-6 3.0310000000e-4
1.4900000000e-5 -6.5000000000e-6 3.0310000000e-4
1.3900000000e-5 -6.5000000000e-6 3.0310000000e-4
1.3900000000e-5 -5.7000000000e-6 3.0250000000e-4
1.4900000000e-5 -5.7000000000e-6 3.0250000000e-4
1.4900000000e-5 -4.7000000000e-6 3.0250000000e-4
1.3900000000e-5 -4.7000000000e-6 3.0250000000e-4
1.3900000000e-5 -5.7000000000e-6 3.0310000000e-4
1.4900000000e-5 -5.7000000000e-6 3.0310000000e-4
1.4900000000e-5 -4.7000000000e-6 3.0310000000e-4
1.3900000000e-5 -4.7000000000e-6 3.0310000000e-4
1.3900000000e-5 -3.9000000000e-6 3.0250000000e-4
1.4900000000e-5 -3.9000000000e-6 3.0250000000e-4
1.4900000000e-5 -2.9000000000e-6 3.0250000000e-4
1.3900000000e-5 -2.9000000000e-6 3.0250000000e-4
1.3900000000e-5 -3.9000000000e-6 3.0310000000e-4
1.4900000000e-5 -3.9000000000e-6 3.0310000000e-4
1.4900000000e-5 -2.9000000000e-6 3.0310000000e-4
1.3900000000e-5 -2.9000000000e-6 3.0310000000e-4
1.5700000000e-5 -1.1100000000e-5 3.0250000000e-4
1.6700000000e-5 -1.1100000000e-5 3.0250000000e-4
1.6700000000e-5 -1.0100000000e-5 3.0250000000e-4
1.5700000000e-5 -1.0100000000e-5 3.0250000000e-4
1.5700000000e-5 -1.1100000000e-5 3.0310000000e-4
1.6700000000e-5 -1.1100000000e-5 3.0310000000e-4
1.6700000000e-5 -1.0100000000e-5 3.0310000000e-4
1.5700000000e-5 -1.0100000000e-5 3.0310000000e-4
1.5700000000e-5 -9.3000000000e-6 3.0250000000e-4
1.6700000000e-5 -9.3000000000e-6 3.0250000000e-4
1.6700000000e-5 -8.3000000000e-6 3.0250000000e-4
1.5700000000e-5 -8.3000000000e-6 3.0250000000e-4
1.5700000000e-5 -9.3000000000e-6 3.0310000000e-4
1.6700000000e-5 -9.3000000000e-6 3.0310000000e-4
1.6700000000e-5 -8.3000000000e-6 3.0310000000e-4
1.5700000000e-5 -8.3000000000e-6 3.0310000000e-4
1.5700000000e-5 -7.5000000000e-6 3.0250000000e-4
1.6700000000e-5 -7.5000000000e-6 3.0250000000e-4
1.6700000000e-5 -6.5000000000e-6 3.0250000000e-4
1.5700000000e-5 -6.5000000000e-6 3.0250000000e-4
1.5700000000e-5 -7.5000000000e-6 3.0310000000e-4
1.6700000000e-5 -7.5000000000e-6 3.0310000000e-4
1.6700000000e-5 -6.5000000000e-6 3.0310000000e-4
1.5700000000e-5 -6.5000000000e-6 3.0310000000e-4
1.5700000000e-5 -5.7000000000e-6 3.0250000000e-4
1.6700000000e-5 -5.7000000000e-6 3.0250000000e-4
1.6700000000e-5 -4.7000000000e-6 3.0250000000e-4
1.5700000000e-5 -4.7000000000e-6 3.0250000000e-4
1.5700000000e-5 -5.7000000000e-6 3.0310000000e-4
1.6700000000e-5 -5.7000000000e-6 3.0310000000e-4
1.6700000000e-5 -4.7000000000e-6 3.0310000000e-4
1.5700000000e-5 -4.7000000000e-6 3.0310000000e-4
1.5700000000e-5 -3.9000000000e-6 3.0250000000e-4
1.6700000000e-5 -3.9000000000e-6 3.0250000000e-4
1.6700000000e-5 -2.9000000000e-6 3.0250000000e-4
1.5700000000e-5 -2.9000000000e-6 3.0250000000e-4
1.5700000000e-5 -3.9000000000e-6 3.0310000000e-4
1.6700000000e-5 -3.9000000000e-6 3.0310000000e-4
1.6700000000e-5 -2.9000000000e-6 3.0310000000e-4
1.5700000000e-5 -2.9000000000e-6 3.0310000000e-4
1.7500000000e-5 -1.1100000000e-5 3.0250000000e-4
1.8500000000e-5 -1.1100000000e-5 3.0250000000e-4
1.8500000000e-5 -1.0100000000e-5 3.0250000000e-4
1.7500000000e-5 -1.0100000000e-5 3.0250000000e-4
1.7500000000e-5 -1.1100000000e-5 3.0310000000e-4
1.8500000000e-5 -1.1100000000e-5 3.0310000000e-4
1.8500000000e-5 -1.0100000000e-5 3.0310000000e-4
1.7500000000e-5 -1.0100000000e-5 3.0310000000e-4
1.7500000000e-5 -9.3000000000e-6 3.0250000000e-4
1.8500000000e-5 -9.3000000000e-6 3.0250000000e-4
1.8500000000e-5 -8.3000000000e-6 3.0250000000e-4
1.7500000000e-5 -8.3000000000e-6 3.0250000000e-4
1.7500000000e-5 -9.3000000000e-6 3.0310000000e-4
1.8500000000e-5 -9.3000000000e-6 3.0310000000e-4
1.8500000000e-5 -8.3000000000e-6 3.0310000000e-4
1.7500000000e-5 -8.3000000000e-6 3.0310000000e-4
1.7500000000e-5 -7.5000000000e-6 3.0250000000e-4
1.8500000000e-5 -7.5000000000e-6 3.0250000000e-4
1.8500000000e-5 -6.5000000000e-6 3.0250000000e-4
1.7500000000e-5 -6.5000000000e-6 3.0250000000e-4
1.7500000000e-5 -7.5000000000e-6 3.0310000000e-4
1.8500000000e-5 -7.5000000000e-6 3.0310000000e-4
1.8500000000e-5 -6.5000000000e-6 3.0310000000e-4
1.7500000000e-5 -6.5000000000e-6 3.0310000000e-4
1.7500000000e-5 -5.7000000000e-6 3.0250000000e-4
1.8500000000e-5 -5.7000000000e-6 3.0250000000e-4
1.8500000000e-5 -4.7000000000e-6 3.0250000000e-4
1.7500000000e-5 -4.7000000000e-6 3.0250000000e-4
1.7500000000e-5 -5.7000000000e-6 3.0310000000e-4
1.8500000000e-5 -5.7000000000e-6 3.0310000000e-4
1.8500000000e-5 -4.7000000000e-6 3.0310000000e-4
1.7500000000e-5 -4.7000000000e-6 3.0310000000e-4
1.7500000000e-5 -3.9000000000e-6 3.0250000000e-4
1.8500000000e-5 -3.9000000000e-6 3.0250000000e-4
1.8500000000e-5 -2.9000000000e-6 3.0250000000e-4
1.7500000000e-5 -2.9000000000e-6 3.0250000000e-4
1.7500000000e-5 -3.9000000000e-6 3.0310000000e-4
1.8500000000e-5 -3.9000000000e-6 3.0310000000e-4
1.8500000000e-5 -2.9000000000e-6 3.0310000000e-4
1.7500000000e-5 -2.9000000000e-6 3.0310000000e-4
1.9300000000e-5 -1.1100000000e-5 3.0250000000e-4
2.0300000000e-5 -1.1100000000e-5 3.0250000000e-4
2.0300000000e-5 -1.0100000000e-5 3.0250000000e-4
1.9300000000e-5 -1.0100000000e-5 3.0250000000e-4
1.9300000000e-5 -1.1100000000e-5 3.0310000000e-4
2.0300000000e-5 -1.1100000000e-5 3.0310000000e-4
2.0300000000e-5 -1.0100000000e-5 3.0310000000e-4
1.9300000000e-5 -1.0100000000e-5 3.0310000000e-4
1.9300000000e-5 -9.3000000000e-6 3.0250000000e-4
2.0300000000e-5 -9.3000000000e-6 3.0250000000e-4
2.0300000000e-5 -8.3000000000e-6 3.0250000000e-4
1.9300000000e-5 -8.3000000000e-6 3.0250000000e-4
1.9300000000e-5 -9.3000000000e-6 3.0310000000e-4
2.0300000000e-5 -9.3000000000e-6 3.0310000000e-4
2.0300000000e-5 -8.3000000000e-6 3.0310000000e-4
1.9300000000e-5 -8.3000000000e-6 3.0310000000e-4
1.9300000000e-5 -7.5000000000e-6 3.0250000000e-4
2.0300000000e-5 -7.5000000000e-6 3.0250000000e-4
2.0300000000e-5 -6.5000000000e-6 3.0250000000e-4
1.9300000000e-5 -6.5000000000e-6 3.0250000000e-4
1.9300000000e-5 -7.5000000000e-6 3.0310000000e-4
2.0300000000e-5 -7.5000000000e-6 3.0310000000e-4
2.0300000000e-5 -6.5000000000e-6 3.0310000000e-4
1.9300000000e-5 -6.5000000000e-6 3.0310000000e-4
1.9300000000e-5 -5.7000000000e-6 3.0250000000e-4
2.0300000000e-5 -5.7000000000e-6 3.0250000000e-4
2.0300000000e-5 -4.7000000000e-6 3.0250000000e-4
1.9300000000e-5 -4.7000000000e-6 3.0250000000e-4
1.9300000000e-5 -5.7000000000e-6 3.0310000000e-4
2.0300000000e-5 -5.7000000000e-6 3.0310000000e-4
2.0300000000e-5 -4.7000000000e-6 3.0310000000e-4
1.9300000000e-5 -4.7000000000e-6 3.0310000000e-4
1.9300000000e-5 -3.9000000000e-6 3.0250000000e-4
2.0300000000e-5 -3.9000000000e-6 3.0250000000e-4
2.0300000000e-5 -2.9000000000e-6 3.0250000000e-4
1.9300000000e-5 -2.9000000000e-6 3.0250000000e-4
1.9300000000e-5 -3.9000000000e-6 3.0310000000e-4
2.0300000000e-5 -3.9000000000e-6 3.0310000000e-4
2.0300000000e-5 -2.9000000000e-6 3.0310000000e-4
1.9300000000e-5 -2.9000000000e-6 3.0310000000e-4
2.1100000000e-5 -1.1100000000e-5 3.0250000000e-4
2.2100000000e-5 -1.1100000000e-5 3.0250000000e-4
2.2100000000e-5 -1.0100000000e-5 3.0250000000e-4
2.1100000000e-5 -1.0100000000e-5 3.0250000000e-4
2.1100000000e-5 -1.1100000000e-5 3.0310000000e-4
2.2100000000e-5 -1.1100000000e-5 3.0310000000e-4
2.2100000000e-5 -1.0100000000e-5 3.0310000000e-4
2.1100000000e-5 -1.0100000000e-5 3.0310000000e-4
2.1100000000e-5 -9.3000000000e-6 3.0250000000e-4
2.2100000000e-5 -9.3000000000e-6 3.0250000000e-4
2.2100000000e-5 -8.3000000000e-6 3.0250000000e-4
2.1100000000e-5 -8.3000000000e-6 3.0250000000e-4
2.1100000000e-5 -9.3000000000e-6 3.0310000000e-4
2.2100000000e-5 -9.3000000000e-6 3.0310000000e-4
2.2100000000e-5 -8.3000000000e-6 3.0310000000e-4
2.1100000000e-5 -8.3000000000e-6 3.0310000000e-4
2.1100000000e-5 -7.5000000000e-6 3.0250000000e-4
2.2100000000e-5 -7.5000000000e-6 3.0250000000e-4
2.2100000000e-5 -6.5000000000e-6 3.0250000000e-4
2.1100000000e-5 -6.5000000000e-6 3.0250000000e-4
2.1100000000e-5 -7.5000000000e-6 3.0310000000e-4
2.2100000000e-5 -7.5000000000e-6 3.0310000000e-4
2.2100000000e-5 -6.5000000000e-6 3.0310000000e-4
2.1100000000e-5 -6.5000000000e-6 3.0310000000e-4
2.1100000000e-5 -5.7000000000e-6 3.0250000000e-4
2.2100000000e-5 -5.7000000000e-6 3.0250000000e-4
2.2100000000e-5 -4.7000000000e-6 3.0250000000e-4
2.1100000000e-5 -4.7000000000e-6 3.0250000000e-4
2.1100000000e-5 -5.7000000000e-6 3.0310000000e-4
2.2100000000e-5 -5.7000000000e-6 3.0310000000e-4
2.2100000000e-5 -4.7000000000e-6 3.0310000000e-4
2.1100000000e-5 -4.7000000000e-6 3.0310000000e-4
2.1100000000e-5 -3.9000000000e-6 3.0250000000e-4
2.2100000000e-5 -3.9000000000e-6 3.0250000000e-4
2.2100000000e-5 -2.9000000000e-6 3.0250000000e-4
2.1100000000e-5 -2.9000000000e-6 3.0250000000e-4
2.1100000000e-5 -3.9000000000e-6 3.0310000000e-4
2.2100000000e-5 -3.9000000000e-6 3.0310000000e-4
2.2100000000e-5 -2.9000000000e-6 3.0310000000e-4
2.1100000000e-5 -2.9000000000e-6 3.0310000000e-4
-1.0700000000e-4 -1.0289949494e-4 3.0100000000e-4
-1.0700000000e-4 -1.0289949494e-4 3.7430000000e-4
[...]
POINT_DATA 9292
VECTORS E_real double
7.1569359378e1 -6.9896851503e1 3.8436201545e0
3.4406650377e0 1.5177158854e1 -7.1814233488e0
6.1590579390e1 -1.3383144479e2 8.0474695281e1
3.8941382771e1 2.8413345831e1 -1.5089977291e1
-1.5382323608e1 -1.0090443934e1 -1.2594424137e0
1.1683911541e1 -1.5202423232e0 4.8358460139e0
1.7454254482e1 6.4237154840e0 2.6684609092e0
2.8777702553e0 5.1970455392e0 5.2378670775e0
1.2484872261e2 -4.5539743947e1 -3.4902048673e2
-5.8409703101e1 1.3221887328e2 -1.0986426884e2
-1.5619969982e2 -9.2071963092e1 1.4909459248e2
1.4519338353e2 1.0920031834e2 -2.7827027329e2
2.8755546541e0 7.5183504247e-2 4.0403922930e0
1.5882361763e1 2.2901453541e-1 2.8949742574e0
1.1391661290e1 1.1939679282e1 1.0860872590e1
-4.5921040586e-2 1.4685227527e1 6.6197716558e0
3.5252842105e1 -3.1766427852e1 3.6185587193e0
1.3881955811e1 3.3199741663e1 3.2938326619e1
-5.0321700676e1 -7.9016428480e1 1.9384069498e1
5.9293616715e1 5.3438041822e1 2.5122288917e1
6.4769482690e-1 -6.1071721826e0 1.6435778167e1
1.0994589861e1 -3.6182581836e0 8.6328107581e0
1.1511310723e1 1.3234303731e1 3.9318843657e0
1.6309911575e0 8.7642036074e0 9.5027364378e-1
2.7379909496e1 -9.2036116786e1 -1.8265911203e2
-1.2197627278e2 1.2938734152e2 1.4709304933e2
-1.2251300632e2 -5.1693581168e1 -6.0655115075e1
1.3155643737e2 1.0269559667e2 -3.0136091368e2
2.1873029096e0 7.8745504992e-1 8.4207985315e0
1.2983540428e1 4.2939549974e0 4.4667708156e0
1.1604165834e1 7.0205712687e0 1.8021450215e0
5.2362532885e-1 1.2984442987e1 4.4027233430e0
3.3584242193e1 -2.2411998334e1 -1.6041870607e1
1.1378152458e2 5.7054332124e1 1.3518355836e2
-3.2494675336e1 2.3315541891e1 3.7396763081e0
9.2793824423e1 1.4430578257e2 -3.0786632868e0
-4.7289149202e0 2.9777766079e0 1.0360825565e1
9.7490923908e0 9.5487634082e-1 4.5028410870e-1
7.0899481625e0 1.2790263276e0 -1.1781985118e0
5.6917324438e-1 4.0926016005e0 6.1116874839e0
-5.5759564482e1 -2.3749701438e1 -1.7836059252e2
-7.8007877503e1 2.3245965546e1 1.7680823924e2
2.3295090057e1 -8.0630329762e1 2.0588597719e1
-1.3508467781e2 1.1389813357e2 9.6029837571e1
1.5118071967e0 -9.2485140930e-1 3.9202551908e0
7.7859684663e0 -4.9786124162e0 1.7980027499e0
9.4221986144e0 5.0650020279e0 2.1120403543e0
-1.1551056589e0 5.3989241134e0 2.1083155139e0
-1.9189794756e2 -5.4931348100e1 -3.1276285183e1
2.9572560874e1 4.5222794217e1 2.0228518689e0
-5.8942992666e1 -6.6576548480e1 -2.2131377339e1
-1.1161002160e1 5.3849540628e1 3.2658089609e1
2.4457285105e0 1.7768737815e0 2.2052528337e0
8.8384404629e0 1.3373094256e0 3.7159877034e-1
1.0958776826e1 6.2289439441e0 1.0797977841e0
6.7468587134e0 4.2981988709e0 1.6454353433e0
-5.0934908231e1 -2.9913375989e1 -2.1468364596e2
9.4829646357e0 5.6100164353e1 9.9329026008e1
-1.4499179238e1 -8.6365454405e1 2.1975786410e2
4.8900817051e0 3.2128175760e1 -9.1294728656e1
8.0700710966e0 2.2396118253e0 4.0140656758e0
1.2112179028e1 3.5938606976e0 -1.5589553284e0
1.1768984936e1 3.5925412137e0 8.9840343824e-1
9.2027283104e0 8.2775682236e0 2.3905266452e0
-5.2623589291e1 -8.3322466288e1 -1.4066325135e0
-2.2307135910e1 5.0627849635e1 -3.0810342798e1
2.4146642290e1 -8.1640020973e1 2.9209845923e1
-1.4414899731e2 1.3444062870e2 7.2967799497e1
9.9777477247e0 1.9393017204e0 7.7565258710e-1
9.9407896368e0 5.1663119306e0 2.8507648663e-1
9.5293010582e0 4.0269391752e0 -1.7423873385e-1
9.8835371490e0 6.8692311529e0 1.1452021514e0
-1.9548601321e2 -5.0625219823e1 -2.0592043745e1
2.4926842554e1 7.3450275950e1 3.7429081169e0
-1.2735114555e2 4.6459240580e0 2.4160593569e2
-3.2098250551e1 4.6023691771e1 -1.0569669438e2
9.9983394355e0 3.3574151189e0 1.4134045891e0
8.7654793960e0 5.0377695362e0 -3.6618103803e0
4.7606243978e0 8.5627213003e-1 -3.6921511289e0
8.0255657863e0 2.2476292931e0 2.3377272007e-3
-2.2763035205e1 -1.0081639422e1 2.4137531577e0
1.6517927928e2 1.2946475083e2 3.2235613167e2
1.8649710013e2 -5.2370072210e1 1.5825272006e1
-2.4297525773e1 1.0205901467e2 -1.3054567277e1
2.2465435398e0 -7.5796083344e-1 3.4414336032e0
7.6062310488e0 1.4079309467e-1 4.4992415594e-1
9.4198751155e0 4.0536476826e0 6.0298243578e-1
8.4864255650e0 4.2073129266e0 7.1484679651e-1
1.0376793616e2 -4.5034491089e1 3.6641795134e1
-5.0854516758e1 8.4960874493e0 1.1970075062e2
5.0622876870e1 2.8772176242e1 7.3068967332e0
6.2514608520e1 2.6520721095e1 2.6225445289e0
9.5059636872e0 1.7160495250e0 3.3093284293e0
9.7571831357e0 4.7071747813e0 -5.3967597608e-1
9.6034405421e0 3.3836076455e0 -1.4573415395e0
9.0914883023e0 4.4547003205e0 1.1950957529e0
-5.1142059354e1 -6.9129133218e1 -3.0431753717e1
1.6680142317e1 -9.0632960529e0 1.2813174685e1
-2.4542300796e1 -5.3521335350e0 -1.8285630332e1
1.4463751216e1 1.7163390490e1 -3.2717185555e1
8.4705924412e0 4.7112186323e0 1.2286765407e0
1.0360682620e1 4.7501085239e0 -1.0534135106e-2
1.0468447621e1 4.9056393821e0 1.8457462502e-1
1.0333828830e1 4.9007266771e0 6.3091349109e-1
1.8175815895e1 3.6179164148e1 -1.2790469747e1
9.6841137132e1 1.5239452407e1 5.1370456164e0
-1.1858106686e2 3.8461983889e1 2.2947777581e2
8.9287526410e1 1.0765627966e2 7.5421079387e1
1.1475151919e1 3.5323458057e0 9.0207042525e-1
9.7334303391e0 5.7236385048e0 -2.0479777034e0
8.3052043414e0 2.2760557696e0 -3.0730180777e0
1.0234067506e1 3.5440195159e0 -1.2937908991e-1
-6.5220239690e1 -1.2119809405e2 -8.1301098369e1
1.8955586517e2 1.0503908899e2 -9.5690871014e1
1.3923786512e2 -7.8996581010e1 3.3205416869e2
3.1251371145e1 6.2852297979e1 4.9293880835e0
1.0400075898e1 4.5229167565e0 2.2358251081e-1
8.0058636283e0 2.6952866140e0 -3.6670231031e0
4.0543139251e0 -8.4284477798e-1 -7.7801782909e0
1.1636293339e1 1.4023954011e0 -2.9266826315e0
3.4328716428e1 4.4713787406e1 -2.0058839186e2
1.0788061308e2 4.4145246449e1 -1.1459346315e1
3.2639393923e1 -5.6150481628e1 9.9424260860e0
5.0697655675e1 7.6961624235e1 -2.0759037583e1
6.3313127475e0 1.2535335075e0 -2.2765268840e-1
5.9887617442e0 4.4490667965e0 -8.7077874279e-1
7.9280893918e0 2.9390652639e0 -1.3901430946e0
7.6342703840e0 3.9464826093e0 1.6918191830e0
2.4105579064e1 -1.0536246215e2 -1.2029566091e2
2.4999802767e1 2.6672657157e1 3.9325027986e1
-5.4315100265e1 -3.7419834522e1 1.7015768915e1
-4.8019106457e0 5.1676008707e1 3.6768594073e1
9.0433131784e0 4.6157933088e0 -4.0062359153e-1
7.2044588434e0 5.3584600521e0 -1.1514513684e0
7.2369122488e0 4.1599509585e0 -1.6296176382e0
1.1178705433e1 5.2672318442e0 -2.1031790918e0
-6.2783757865e1 -2.4967646551e1 -2.2122601962e2
8.7671102161e0 4.7554804070e1 9.5951907889e1
-1.5776882630e1 -8.1337207592e1 2.1998953412e2
-1.6589384266e1 2.1337466674e1 -9.5901960217e1
1.1970597014e1 3.3566215605e0 -6.1920978792e-1
7.7851990851e0 6.7892913199e0 -2.5833493651e0
8.0300531073e0 1.1902500901e0 -3.7941335017e0
1.1542777809e1 4.6595052870e0 -1.1731749965e0
-3.9902990445e1 -7.4850143385e1 6.7414391481e0
-1.3286391317e1 2.8480548830e1 3.2964296615e1
-3.5848405699e1 -6.6694621469e1 8.8413094347e0
2.2199121424e1 4.9088706539e1 -2.2980408082e1
1.2298651818e1 3.4094216236e0 -1.9554119725e0
7.5038968518e0 8.1475208959e0 -5.8615356215e0
3.3606276516e0 1.5239573730e0 -2.1164375307e0
1.2032235045e1 1.5275434445e0 -2.9363111954e0
4.4637903494e1 -1.0000643950e2 -4.8467812958e1
6.3977044354e1 -7.4027205699e0 -7.9226772926e1
5.0624278377e1 6.5005305684e1 2.3085832266e2
8.3957184078e1 5.5039706705e1 4.1086535441e1
1.0195783973e1 2.6088357661e0 -7.4534569907e-1
1.5261346713e0 5.1117771021e0 -1.9672314485e0
9.0709324006e-1 -2.0810749027e0 -6.2166971971e0
1.0587137211e1 5.6373791249e-1 -3.9493851824e0
6.0109660318e1 -1.0312480348e2 -7.6463626829e0
8.0631910564e1 -5.0667486620e1 8.9804026866e-1
6.7058135110e1 -2.0305913492e1 2.4617303622e1
1.0024955005e2 2.9439549435e1 1.4867190979e1
8.0999758792e0 7.6978686150e0 -6.2624826049e0
2.0186038965e0 1.3505197330e1 -2.0299640481e0
-3.0219077941e0 2.0007426278e0 -6.7882224167e0
9.0406512059e0 6.3872730620e-1 -2.2142643528e0
-6.3526808272e1 -4.2686013440e1 -2.3092648004e2
1.5507288844e1 4.0274595019e1 7.7803813106e1
1.1695275571e1 -3.9946977819e1 -2.9768784807e1
1.6367608624e0 3.5649303920e1 -1.0059117621e2
1.0411605983e1 6.6374296995e0 -9.9005443578e0
-3.3759936811e-1 1.6058452089e1 -1.0434364439e1
-1.5697105212e-1 -7.4498113304e0 -9.5469339111e0
1.1095472095e1 3.9803127743e0 -1.0647381997e0
9.0109527207e1 -5.2893566775e1 -3.2597572399e2
3.7375435122e1 -9.7040125911e0 -1.4869267397e0
-6.1417554068e0 -3.1445618193e1 1.3898311010e1
8.8989408289e1 1.0501324042e2 -2.7897886650e2
1.1049669449e1 1.1344859789e1 -5.0228025748e0
-6.6338659989e0 6.2018243193e0 -2.0353080465e1
-9.1772712227e0 9.0863128347e-1 -2.2832854291e1
8.7652424007e0 -7.3526129142e-1 -6.2106889591e0
-5.0679718594e1 -2.4524566975e1 -2.0914663928e2
1.8723642250e1 1.9838916276e1 5.6408208227e1
-9.9660232035e-1 -7.7189365129e1 1.6445003386e2
-1.4525305740e1 2.9945984490e1 -1.0598036398e2
8.7529270179e0 7.8182292322e0 7.7383014573e-1
2.0716483019e0 8.7788081087e0 -9.3761042255e0
-9.2583747127e-1 -8.1002760300e0 -9.2592087465e0
1.1538017774e1 -6.3064198449e0 -2.1066965465e0
4.4783065487e1 -5.0756879050e1 -2.0861308527e1
1.1953535181e2 2.5493210548e0 -1.0890204002e1
4.6207816948e1 5.2540118158e0 1.0080347448e1
6.7273502082e1 1.0998469773e2 -3.2645280924e0
1.1296187418e1 1.1327568913e1 -3.9664989228e-1
-6.5125725558e0 6.3825157006e0 -8.9662129878e0
-8.7590273849e0 -1.9972808886e0 -3.2472572097e0
1.0409940833e1 -7.1684681054e0 -8.4520038826e0
0.0000000000e0 0.0000000000e0 0.0000000000e0
7.3734579146e-16 -5.4477552366e-16 -2.5473083490e-17
-9.6909364312e-17 7.2513962811e-17 4.6025744344e-16
0.0000000000e0 0.0000000000e0 0.0000000000e0
0.0000000000e0 0.0000000000e0 0.0000000000e0
3.5695326814e-18 -4.3952686058e-18 -4.1226632085e-18
-3.1021667977e-16 -1.3609546502e-16 -3.4735189147e-17
0.0000000000e0 0.0000000000e0 0.0000000000e0
1.1035803156e2 4.6396223220e1 2.2110093101e1
1.1965573849e2 4.9761844238e1 9.5092912182e0
-1.4744902683e1 2.5235937716e1 1.5699704545e0
-2.0009896325e1 3.1196697174e1 -1.1808295722e1
4.8596730954e1 -1.7561393743e1 2.2721617485e0
4.7189685948e1 -1.8696078389e1 1.7872478296e0
1.2652886448e1 1.9994500707e1 -1.4759715426e0
1.6063499560e1 2.2956322358e1 6.6006488477e0
3.4006473566e1 8.4404536631e1 3.9949350634e-1
1.4307880439e-4 -2.4598362785e-5 -3.6480493387e-7
-9.1634660923e-1 1.6321957457e0 -2.3575396692e-2
3.6331509015e-5 3.5144267086e-5 -2.5894572387e-6
-1.2477277920e-4 1.2052476185e-4 -4.9560310422e-6
-1.5300789123e-5 2.7554956681e-5 8.8491307601e-6
-1.9347308415e-5 2.6349583219e-5 -1.2424642665e-5
-3.3398658332e-5 -7.9243846940e-6 8.0214248308e-6
-3.8562441021e-5 1.0254838291e-5 1.8272487159e-6
1.4294309801e-5 -7.5121380451e-5 1.3202839426e-5
-5.6572381601e-5 -1.0464367119e-5 5.3909114055e-7
3.4172383983e-4 1.6069413779e-5 5.5191405504e-5
-7.3546499610e-5 -6.0687418973e-5 -2.2723144417e-5
-1.4014031462e-4 5.7226489582e-4 -1.0136883489e-4
-1.8897948332e-4 -3.8559222873e-4 -1.0300942986e-4
1.9462752591e-2 -3.5806968078e-2 4.1629955092e-4
-9.4680251061e-5 1.4432525226e-3 3.4982523487e-4
2.6501084664e-4 -2.2669290712e-5 1.2573538636e-5
-2.4825314696e-2 5.2320586131e-2 9.9699746199e-4
8.0886300250e-5 7.8719815623e-5 2.1819514321e-5
-2.7175636138e-4 1.7868682866e-4 4.5802547579e-5
-1.5131086351e-5 5.5851525131e-5 1.9335129788e-5
-5.7447888797e-5 4.0040491438e-5 4.9115358628e-6
-6.2674184373e-5 -1.3104845532e-5 2.9599509139e-5
-6.2770932204e-5 6.1446538462e-6 3.0447308476e-6
1.1744205901e-5 -1.3144000984e-4 5.9542690663e-5
-7.2080808724e-5 -2.7648136354e-5 -1.4066281227e-5
8.4226620372e-4 1.1029943965e-4 3.6322434302e-5
-2.2840404001e-4 -9.0058058368e-5 -6.6874557503e-5
5.9029804794e-3 1.6031395182e-2 -5.0051294878e-4
-2.0956969248e-3 -1.3592902897e-3 -1.5911213209e-4
7.8434712306e-4 -7.9959186170e-4 -1.0013869153e-4
-4.2319928079e-2 -7.0939874752e-2 1.3037777057e-2
6.3843030580e-4 -8.5481324490e-5 3.0845603294e-5
-1.5431990078e-3 3.4518318346e-3 7.0382251660e-4
1.6000405838e-4 1.3211693292e-4 1.2076108802e-5
-5.8421062823e-4 6.1234245551e-4 -3.8151816612e-5
-1.9993562629e-5 1.4423277606e-4 2.4411980753e-5
-2.1026106607e-4 -8.6356014779e-6 -3.9653238450e-5
-1.1220942141e-4 -4.9184560314e-6 4.3990880053e-5
-7.3219034735e-5 -4.6565483701e-5 -3.3740779921e-5
4.3807861287e-5 -1.8036070380e-4 8.4660464990e-5
-1.3724947942e-4 -8.4509577276e-6 -7.1058922126e-5
8.8281781414e-3 3.0396529241e-3 1.1750884628e-3
-6.9329813996e-4 -1.7109785815e-4 -3.8857754084e-5
6.6424799034e-1 1.5999274570e0 1.2158342789e-2
-2.7864567508e-2 -1.9741695617e-2 -5.2188016140e-3
-1.5153582191e0 -1.2087889039e0 -4.6436786680e-1
-4.6333637660e0 -2.4536677844e0 4.4845023806e-1
4.6389487734e-1 9.4543330402e-1 2.5607302646e-1
-1.4843948521e-6 -3.9856418904e-5 1.4493001666e-5
-1.9031717426e-6 -2.1359522557e-5 7.2834913171e-6
2.6119251120e-5 -1.9085268277e-5 1.3316984951e-5
4.8257821658e-5 9.4621323743e-6 2.7669850573e-5
3.6825415495e-5 4.6882752890e-5 3.3934865581e-5
-8.5449889576e-6 8.5511243584e-5 3.4836802364e-5
3.8297893226e-4 -7.3597567822e-4 -3.7177217294e-4
1.9878504698e-2 -7.1144294070e-2 6.0368364688e-3
-2.0182077632e-5 -6.8576135775e-5 2.9618717731e-5
-1.1107779945e-5 -3.2197598043e-5 6.3950039439e-6
3.0302806637e-5 -3.3843593762e-5 2.1808867795e-5
5.1902644969e-5 -9.3178975717e-7 2.5862622757e-5
5.8714296590e-5 6.9061596520e-5 4.0560036498e-5
1.7115500047e-4 5.4601012729e-4 2.3792256311e-4
4.2859194478e-3 9.9118285336e-3 -1.4522310587e-4
5.0646068725e-4 -2.1312047989e-3 -1.0708796189e-4
2.9775106544e-5 -1.8639844106e-4 4.9185354839e-5
1.0492123267e-5 -9.2006573262e-5 5.2538034041e-5
4.6984614311e-5 -4.6310478027e-5 2.3679462683e-5
9.1808201194e-5 -1.0522748802e-5 4.1264544396e-5
2.1157964816e-4 1.7201806019e-4 1.0321510069e-4
7.3587778842e-3 4.6429609253e-3 1.0148144920e-3
3.1433882676e-1 1.0611079548e0 -2.7535349020e-1
-3.8269554945e-1 -4.5844822057e0 6.1057609584e0
-5.5431266836e-2 6.4566327914e-1 -9.0915571482e-1
2.5710383482e0 -4.3892511185e0 1.3287668141e0
-3.0450820963e-2 -1.5889061062e-2 1.6100852130e-3
-3.3127789844e-4 4.2532994303e-4 -1.4654956493e-4
1.8589409756e-4 -7.2092382904e-5 -6.3311237508e-7
-1.7000266996e-5 -3.8180564302e-4 -5.8781433214e-5
-5.4597139258e-4 -4.2119055701e-4 -6.8919230933e-5
-1.7821392751e-3 3.7047131698e-4 -2.3066601684e-4
-2.8474131993e-3 5.8380848027e-3 3.4211039102e-5
-2.4308824828e-2 -1.3254780319e-1 -5.9574907040e-3
-3.6598392329e-3 -5.6101706363e-4 -4.9099929793e-4
-1.0746134668e-4 2.1934048192e-4 -4.1283933130e-5
8.4400095520e-5 -2.5488060870e-5 3.6477623887e-6
1.2672289439e-5 -1.5989161663e-4 -2.1458094943e-5
-2.2032262118e-4 -1.8085426386e-4 -2.1876882500e-5
-8.0735666791e-4 1.2689467118e-4 -7.4963618621e-5
-2.5576572799e-2 4.8965594105e-2 8.8935124285e-4
-2.7910622187e-4 -1.6054893142e-3 1.0845763477e-4
-8.2310735075e-4 -2.1497352660e-4 -2.8878298518e-5
-3.8103711383e-5 1.1055902890e-4 1.1508598665e-5
5.8787733625e-5 4.3397241755e-6 3.4477514602e-6
1.7756945128e-5 -6.5518974642e-5 -1.0160323314e-5
-9.0497299254e-5 -6.5791232905e-5 -3.0311905320e-6
-3.9752088691e-4 1.3332397121e-4 4.1186731909e-5
-9.4513966888e-1 1.6063421431e0 2.4564866166e-3
3.7135268923e1 7.2733225437e1 -1.6400964895e0
6.3106536070e1 7.6184398473e0 -1.0880593083e0
9.2169173109e-4 2.0023369247e-4 2.6550321226e-4
-2.3829417718e1 2.2322581079e1 -4.9770413426e0
5.3695355880e-2 -1.8229143356e-2 3.0149568669e-2
6.0447267826e1 1.5330901906e1 -4.3821411798e0
-1.1567020765e-3 3.0544486171e-4 -4.8389423346e-4
-1.6244912576e1 4.4911746235e1 1.2332610679e1
1.5437925886e-2 -3.9979954440e-2 -1.5208037596e-2
0.0000000000e0 0.0000000000e0 0.0000000000e0
0.0000000000e0 0.0000000000e0 0.0000000000e0
0.0000000000e0 0.0000000000e0 0.0000000000e0
0.0000000000e0 0.0000000000e0 0.0000000000e0
-1.3590786338e-4 -1.4376331638e-4 8.6662756946e-4
1.6367701780e-15 2.7853220217e-16 9.9626707138e-17
1.2762753198e-15 9.4426492451e-15 3.2276088832e-16
-1.1732122091e-14 1.7065774093e-15 -1.6416062544e-16
3.8935042164e-15 1.3703702686e-15 -4.4558903403e-16
6.7751524891e-16 2.6074039008e-16 -2.5954002642e-30
1.2747656504e-15 1.8750878782e-16 -4.7785430118e-16
-1.3277423831e-5 -8.2725220890e-16 1.7105769775e-15
-1.6208523767e-15 -1.7098218463e-16 1.1023575964e-15
4.2002739064e-16 -2.8504693765e-16 2.1067002517e-15
6.9271358743e-15 3.7201940487e-16 -3.1398119150e-15
-1.3525321415e-15 -3.4679193410e-31 3.5820647809e-15
-4.0594244971e-15 1.1371989158e-16 -2.4730618720e-15
3.1078006066e-15 8.3137209858e-17 -2.9811962011e-15
-3.6592839160e-16 9.0897356875e-19 3.7253789000e-16
-1.9007537128e-15 2.7103217355e-17 -7.6080876622e-16
3.5028651088e-15 -1.5806712226e-16 -1.7437166145e-15
1.1789979812e-15 -1.1314530966e-17 -1.7438185523e-16
-1.4583292742e-15 1.2176441631e-16 -4.3720890988e-15
1.3800968586e-15 2.7697538867e-16 2.4320342600e-15
-6.5189921605e-15 -1.3131544100e-16 -8.1426218399e-16
1.1830133443e-15 -2.4413567069e-16 -2.1648029496e-15
-3.6790504566e-15 1.7252735886e-15 3.6646958235e-15
-9.1392446165e-16 7.2986129264e-16 -4.2522563363e-30
4.0035633068e-4 -1.8248308469e-15 3.7988021962e-16
-4.8774039558e-15 4.1783017286e-16 -1.6257860586e-17
-5.9758573475e-15 2.2787634827e-15 1.9867517204e-16
1.3945713867e-15 -9.1330086711e-15 -1.8235936677e-16
-1.1912157390e-15 3.8237622817e-16 -4.4148645146e-30
0.0000000000e0 0.0000000000e0 0.0000000000e0
0.0000000000e0 0.0000000000e0 0.0000000000e0
0.0000000000e0 0.0000000000e0 0.0000000000e0
0.0000000000e0 0.0000000000e0 0.0000000000e0
0.0000000000e0 0.0000000000e0 0.0000000000e0
0.0000000000e0 0.0000000000e0 0.0000000000e0
0.0000000000e0 0.0000000000e0 0.0000000000e0
0.0000000000e0 0.0000000000e0 0.0000000000e0
0.0000000000e0 0.0000000000e0 0.0000000000e0
0.0000000000e0 0.0000000000e0 0.0000000000e0
0.0000000000e0 0.0000000000e0 0.0000000000e0
0.0000000000e0 0.0000000000e0 0.0000000000e0
0.0000000000e0 0.0000000000e0 0.0000000000e0
0.0000000000e0 0.0000000000e0 0.0000000000e0
0.0000000000e0 0.0000000000e0 0.0000000000e0
0.0000000000e0 0.0000000000e0 0.0000000000e0
0.0000000000e0 0.0000000000e0 0.0000000000e0
0.0000000000e0 0.0000000000e0 0.0000000000e0
0.0000000000e0 0.0000000000e0 0.0000000000e0
0.0000000000e0 0.0000000000e0 0.0000000000e0
0.0000000000e0 0.0000000000e0 0.0000000000e0
0.0000000000e0 0.0000000000e0 0.0000000000e0
0.0000000000e0 0.0000000000e0 0.0000000000e0
0.0000000000e0 0.0000000000e0 0.0000000000e0
0.0000000000e0 0.0000000000e0 0.0000000000e0
0.0000000000e0 0.0000000000e0 0.0000000000e0
0.0000000000e0 0.0000000000e0 0.0000000000e0
0.0000000000e0 0.0000000000e0 0.0000000000e0
0.0000000000e0 0.0000000000e0 0.0000000000e0
0.0000000000e0 0.0000000000e0 0.0000000000e0
0.0000000000e0 0.0000000000e0 0.0000000000e0
0.0000000000e0 0.0000000000e0 0.0000000000e0
0.0000000000e0 0.0000000000e0 0.0000000000e0
0.0000000000e0 0.0000000000e0 0.0000000000e0
0.0000000000e0 0.0000000000e0 0.0000000000e0
4.4615129222e-17 6.3431077259e-17 -3.3371132083e-29
3.9052137098e-18 -1.5577348553e-5 4.4127065491e-17
1.8693264995e-16 -3.1200146868e-17 1.9449479974e-18
6.3605465164e-18 6.9945127804e-17 9.7786045348e-18
-1.4580475225e-6 -6.7470826844e-17 5.3381427028e-18
-1.1664129416e-17 -1.8450011039e-17 -2.2936537599e-18
7.6272136732e-17 2.2921677474e-16 -8.2526888684e-16
-5.2430189930e-16 -3.3552646092e-15 -3.7983844945e-15
-1.9386036814e-16 -7.3310806616e-15 9.5232209538e-16
2.0456144583e-16 -3.1475038076e-15 -1.7779519428e-15
7.3629086490e-16 2.6240214764e-4 -3.6848968300e-15
-1.4324679219e-16 -2.4340776706e-15 2.2564922700e-15
3.3798994196e-17 2.0594255540e-15 2.0053122806e-15
1.6146977301e-18 5.2317172735e-16 -3.0629724030e-4
0.0000000000e0 0.0000000000e0 3.0261055217e-16
3.5394295907e-17 -6.4864653603e-16 -2.0394273488e-15
-1.1932171410e-17 6.5030127243e-17 -2.9632065093e-4
-3.0795014143e-17 2.3581902825e-16 -4.2496643764e-15
1.7812809710e-16 -1.1735257182e-15 2.2436896289e-15
8.6277231566e-17 -4.1021780710e-16 -1.7364947245e-15
-1.6283919871e-16 6.2298131283e-16 -2.8580443930e-16
3.8733724019e-16 -1.1314124191e-15 -1.2928777923e-15
3.7668780246e-17 -5.4059843787e-17 -2.4483426354e-16
1.3154221895e-17 -2.6610373947e-17 2.2975723148e-17
3.7711721774e-16 -1.0315032589e-15 -1.7309436305e-15