# vtk DataFile Version 3.0
RapidFEM f=1.0000e9Hz
ASCII
DATASET UNSTRUCTURED_GRID
POINTS 9292 double
1.3900000000e-5 -1.1100000000e-5 3.0250000000e-4
1.4900000000e-5 -1.1100000000e-5 3.0250000000e-4
1.4900000000e-5 -1.0100000000e-5 3.0250000000e-4
1.3900000000e-5 -1.0100000000e-5 3.0250000000e-4
1.3900000000e-5 -1.1100000000e-5 3.0310000000e-4
1.4900000000e-5 -1.1100000000e-5 3.0310000000e-4
1.4900000000e-5 -1.0100000000e-5 3.0310000000e-4
1.3900000000e-5 -1.0100000000e-5 3.0310000000e-4
1.3900000000e-5 -9.3000000000e-6 3.0250000000e-4
1.4900000000e-5 -9.3000000000e-6 3.0250000000e-4
1.4900000000e-5 -8.3000000000e-6 3.0250000000e-4
1.3900000000e-5 -8.3000000000e-6 3.0250000000e-4
1.3900000000e-5 -9.3000000000e-6 3.0310000000e-4
1.4900000000e-5 -9.3000000000e-6 3.0310000000e-4
1.4900000000e-5 -8.3000000000e-6 3.0310000000e-4
1.3900000000e-5 -8.3000000000e-6 3.0310000000e-4
1.3900000000e-5 -7.5000000000e-6 3.0250000000e-4
1.4900000000e-5 -7.5000000000e-6 3.0250000000e-4
1.4900000000e-5 -6.5000000000e-6 3.0250000000e-4
1.3900000000e-5 -6.5000000000e-6 3.0250000000e-4
1.3900000000e-5 -7.5000000000e-6 3.0310000000e-4
1.4900000000e-5 -7.5000000000e-6 3.0310000000e-4
1.4900000000e-5 -6.5000000000e-6 3.0310000000e-4
1.3900000000e-5 -6.5000000000e-6 3.0310000000e-4
1.3900000000e-5 -5.7000000000e-6 3.0250000000e-4
1.4900000000e-5 -5.7000000000e-6 3.0250000000e-4
1.4900000000e-5 -4.7000000000e-6 3.0250000000e-4
1.3900000000e-5 -4.7000000000e-6 3.0250000000e-4
1.3900000000e-5 -5.7000000000e-6 3.0310000000e-4
1.4900000000e-5 -5.7000000000e-6 3.0310000000e-4
1.4900000000e-5 -4.7000000000e-6 3.0310000000e-4
1.3900000000e-5 -4.7000000000e-6 3.0310000000e-4
1.3900000000e-5 -3.9000000000e-6 3.0250000000e-4
1.4900000000e-5 -3.9000000000e-6 3.0250000000e-4
1.4900000000e-5 -2.9000000000e-6 3.0250000000e-4
1.3900000000e-5 -2.9000000000e-6 3.0250000000e-4
1.3900000000e-5 -3.9000000000e-6 3.0310000000e-4
1.4900000000e-5 -3.9000000000e-6 3.0310000000e-4
1.4900000000e-5 -2.9000000000e-6 3.0310000000e-4
1.3900000000e-5 -2.9000000000e-6 3.0310000000e-4
1.5700000000e-5 -1.1100000000e-5 3.0250000000e-4
1.6700000000e-5 -1.1100000000e-5 3.0250000000e-4
1.6700000000e-5 -1.0100000000e-5 3.0250000000e-4
1.5700000000e-5 -1.0100000000e-5 3.0250000000e-4
1.5700000000e-5 -1.1100000000e-5 3.0310000000e-4
1.6700000000e-5 -1.1100000000e-5 3.0310000000e-4
1.6700000000e-5 -1.0100000000e-5 3.0310000000e-4
1.5700000000e-5 -1.0100000000e-5 3.0310000000e-4
1.5700000000e-5 -9.3000000000e-6 3.0250000000e-4
1.6700000000e-5 -9.3000000000e-6 3.0250000000e-4
1.6700000000e-5 -8.3000000000e-6 3.0250000000e-4
1.5700000000e-5 -8.3000000000e-6 3.0250000000e-4
1.5700000000e-5 -9.3000000000e-6 3.0310000000e-4
1.6700000000e-5 -9.3000000000e-6 3.0310000000e-4
1.6700000000e-5 -8.3000000000e-6 3.0310000000e-4
1.5700000000e-5 -8.3000000000e-6 3.0310000000e-4
1.5700000000e-5 -7.5000000000e-6 3.0250000000e-4
1.6700000000e-5 -7.5000000000e-6 3.0250000000e-4
1.6700000000e-5 -6.5000000000e-6 3.0250000000e-4
1.5700000000e-5 -6.5000000000e-6 3.0250000000e-4
1.5700000000e-5 -7.5000000000e-6 3.0310000000e-4
1.6700000000e-5 -7.5000000000e-6 3.0310000000e-4
1.6700000000e-5 -6.5000000000e-6 3.0310000000e-4
1.5700000000e-5 -6.5000000000e-6 3.0310000000e-4
1.5700000000e-5 -5.7000000000e-6 3.0250000000e-4
1.6700000000e-5 -5.7000000000e-6 3.0250000000e-4
1.6700000000e-5 -4.7000000000e-6 3.0250000000e-4
1.5700000000e-5 -4.7000000000e-6 3.0250000000e-4
1.5700000000e-5 -5.7000000000e-6 3.0310000000e-4
1.6700000000e-5 -5.7000000000e-6 3.0310000000e-4
1.6700000000e-5 -4.7000000000e-6 3.0310000000e-4
1.5700000000e-5 -4.7000000000e-6 3.0310000000e-4
1.5700000000e-5 -3.9000000000e-6 3.0250000000e-4
1.6700000000e-5 -3.9000000000e-6 3.0250000000e-4
1.6700000000e-5 -2.9000000000e-6 3.0250000000e-4
1.5700000000e-5 -2.9000000000e-6 3.0250000000e-4
1.5700000000e-5 -3.9000000000e-6 3.0310000000e-4
1.6700000000e-5 -3.9000000000e-6 3.0310000000e-4
1.6700000000e-5 -2.9000000000e-6 3.0310000000e-4
1.5700000000e-5 -2.9000000000e-6 3.0310000000e-4
1.7500000000e-5 -1.1100000000e-5 3.0250000000e-4
1.8500000000e-5 -1.1100000000e-5 3.0250000000e-4
1.8500000000e-5 -1.0100000000e-5 3.0250000000e-4
1.7500000000e-5 -1.0100000000e-5 3.0250000000e-4
1.7500000000e-5 -1.1100000000e-5 3.0310000000e-4
1.8500000000e-5 -1.1100000000e-5 3.0310000000e-4
1.8500000000e-5 -1.0100000000e-5 3.0310000000e-4
1.7500000000e-5 -1.0100000000e-5 3.0310000000e-4
1.7500000000e-5 -9.3000000000e-6 3.0250000000e-4
1.8500000000e-5 -9.3000000000e-6 3.0250000000e-4
1.8500000000e-5 -8.3000000000e-6 3.0250000000e-4
1.7500000000e-5 -8.3000000000e-6 3.0250000000e-4
1.7500000000e-5 -9.3000000000e-6 3.0310000000e-4
1.8500000000e-5 -9.3000000000e-6 3.0310000000e-4
1.8500000000e-5 -8.3000000000e-6 3.0310000000e-4
1.7500000000e-5 -8.3000000000e-6 3.0310000000e-4
1.7500000000e-5 -7.5000000000e-6 3.0250000000e-4
1.8500000000e-5 -7.5000000000e-6 3.0250000000e-4
1.8500000000e-5 -6.5000000000e-6 3.0250000000e-4
1.7500000000e-5 -6.5000000000e-6 3.0250000000e-4
1.7500000000e-5 -7.5000000000e-6 3.0310000000e-4
1.8500000000e-5 -7.5000000000e-6 3.0310000000e-4
1.8500000000e-5 -6.5000000000e-6 3.0310000000e-4
1.7500000000e-5 -6.5000000000e-6 3.0310000000e-4
1.7500000000e-5 -5.7000000000e-6 3.0250000000e-4
1.8500000000e-5 -5.7000000000e-6 3.0250000000e-4
1.8500000000e-5 -4.7000000000e-6 3.0250000000e-4
1.7500000000e-5 -4.7000000000e-6 3.0250000000e-4
1.7500000000e-5 -5.7000000000e-6 3.0310000000e-4
1.8500000000e-5 -5.7000000000e-6 3.0310000000e-4
1.8500000000e-5 -4.7000000000e-6 3.0310000000e-4
1.7500000000e-5 -4.7000000000e-6 3.0310000000e-4
1.7500000000e-5 -3.9000000000e-6 3.0250000000e-4
1.8500000000e-5 -3.9000000000e-6 3.0250000000e-4
1.8500000000e-5 -2.9000000000e-6 3.0250000000e-4
1.7500000000e-5 -2.9000000000e-6 3.0250000000e-4
1.7500000000e-5 -3.9000000000e-6 3.0310000000e-4
1.8500000000e-5 -3.9000000000e-6 3.0310000000e-4
1.8500000000e-5 -2.9000000000e-6 3.0310000000e-4
1.7500000000e-5 -2.9000000000e-6 3.0310000000e-4
1.9300000000e-5 -1.1100000000e-5 3.0250000000e-4
2.0300000000e-5 -1.1100000000e-5 3.0250000000e-4
2.0300000000e-5 -1.0100000000e-5 3.0250000000e-4
1.9300000000e-5 -1.0100000000e-5 3.0250000000e-4
1.9300000000e-5 -1.1100000000e-5 3.0310000000e-4
2.0300000000e-5 -1.1100000000e-5 3.0310000000e-4
2.0300000000e-5 -1.0100000000e-5 3.0310000000e-4
1.9300000000e-5 -1.0100000000e-5 3.0310000000e-4
1.9300000000e-5 -9.3000000000e-6 3.0250000000e-4
2.0300000000e-5 -9.3000000000e-6 3.0250000000e-4
2.0300000000e-5 -8.3000000000e-6 3.0250000000e-4
1.9300000000e-5 -8.3000000000e-6 3.0250000000e-4
1.9300000000e-5 -9.3000000000e-6 3.0310000000e-4
2.0300000000e-5 -9.3000000000e-6 3.0310000000e-4
2.0300000000e-5 -8.3000000000e-6 3.0310000000e-4
1.9300000000e-5 -8.3000000000e-6 3.0310000000e-4
1.9300000000e-5 -7.5000000000e-6 3.0250000000e-4
2.0300000000e-5 -7.5000000000e-6 3.0250000000e-4
2.0300000000e-5 -6.5000000000e-6 3.0250000000e-4
1.9300000000e-5 -6.5000000000e-6 3.0250000000e-4
1.9300000000e-5 -7.5000000000e-6 3.0310000000e-4
2.0300000000e-5 -7.5000000000e-6 3.0310000000e-4
2.0300000000e-5 -6.5000000000e-6 3.0310000000e-4
1.9300000000e-5 -6.5000000000e-6 3.0310000000e-4
1.9300000000e-5 -5.7000000000e-6 3.0250000000e-4
2.0300000000e-5 -5.7000000000e-6 3.0250000000e-4
2.0300000000e-5 -4.7000000000e-6 3.0250000000e-4
1.9300000000e-5 -4.7000000000e-6 3.0250000000e-4
1.9300000000e-5 -5.7000000000e-6 3.0310000000e-4
2.0300000000e-5 -5.7000000000e-6 3.0310000000e-4
2.0300000000e-5 -4.7000000000e-6 3.0310000000e-4
1.9300000000e-5 -4.7000000000e-6 3.0310000000e-4
1.9300000000e-5 -3.9000000000e-6 3.0250000000e-4
2.0300000000e-5 -3.9000000000e-6 3.0250000000e-4
2.0300000000e-5 -2.9000000000e-6 3.0250000000e-4
1.9300000000e-5 -2.9000000000e-6 3.0250000000e-4
1.9300000000e-5 -3.9000000000e-6 3.0310000000e-4
2.0300000000e-5 -3.9000000000e-6 3.0310000000e-4
2.0300000000e-5 -2.9000000000e-6 3.0310000000e-4
1.9300000000e-5 -2.9000000000e-6 3.0310000000e-4
2.1100000000e-5 -1.1100000000e-5 3.0250000000e-4
2.2100000000e-5 -1.1100000000e-5 3.0250000000e-4
2.2100000000e-5 -1.0100000000e-5 3.0250000000e-4
2.1100000000e-5 -1.0100000000e-5 3.0250000000e-4
2.1100000000e-5 -1.1100000000e-5 3.0310000000e-4
2.2100000000e-5 -1.1100000000e-5 3.0310000000e-4
2.2100000000e-5 -1.0100000000e-5 3.0310000000e-4
2.1100000000e-5 -1.0100000000e-5 3.0310000000e-4
2.1100000000e-5 -9.3000000000e-6 3.0250000000e-4
2.2100000000e-5 -9.3000000000e-6 3.0250000000e-4
2.2100000000e-5 -8.3000000000e-6 3.0250000000e-4
2.1100000000e-5 -8.3000000000e-6 3.0250000000e-4
2.1100000000e-5 -9.3000000000e-6 3.0310000000e-4
2.2100000000e-5 -9.3000000000e-6 3.0310000000e-4
2.2100000000e-5 -8.3000000000e-6 3.0310000000e-4
2.1100000000e-5 -8.3000000000e-6 3.0310000000e-4
2.1100000000e-5 -7.5000000000e-6 3.0250000000e-4
2.2100000000e-5 -7.5000000000e-6 3.0250000000e-4
2.2100000000e-5 -6.5000000000e-6 3.0250000000e-4
2.1100000000e-5 -6.5000000000e-6 3.0250000000e-4
2.1100000000e-5 -7.5000000000e-6 3.0310000000e-4
2.2100000000e-5 -7.5000000000e-6 3.0310000000e-4
2.2100000000e-5 -6.5000000000e-6 3.0310000000e-4
2.1100000000e-5 -6.5000000000e-6 3.0310000000e-4
2.1100000000e-5 -5.7000000000e-6 3.0250000000e-4
2.2100000000e-5 -5.7000000000e-6 3.0250000000e-4
2.2100000000e-5 -4.7000000000e-6 3.0250000000e-4
2.1100000000e-5 -4.7000000000e-6 3.0250000000e-4
2.1100000000e-5 -5.7000000000e-6 3.0310000000e-4
2.2100000000e-5 -5.7000000000e-6 3.0310000000e-4
2.2100000000e-5 -4.7000000000e-6 3.0310000000e-4
2.1100000000e-5 -4.7000000000e-6 3.0310000000e-4
2.1100000000e-5 -3.9000000000e-6 3.0250000000e-4
2.2100000000e-5 -3.9000000000e-6 3.0250000000e-4
2.2100000000e-5 -2.9000000000e-6 3.0250000000e-4
2.1100000000e-5 -2.9000000000e-6 3.0250000000e-4
2.1100000000e-5 -3.9000000000e-6 3.0310000000e-4
2.2100000000e-5 -3.9000000000e-6 3.0310000000e-4
2.2100000000e-5 -2.9000000000e-6 3.0310000000e-4
2.1100000000e-5 -2.9000000000e-6 3.0310000000e-4
-1.0700000000e-4 -1.0289949494e-4 3.0100000000e-4
-1.0700000000e-4 -1.0289949494e-4 3.7430000000e-4
[...]
POINT_DATA 9292
VECTORS E_real double
2.5607415169e-5 -3.5744019761e-5 1.2641417473e-6
6.6063582657e-5 -3.6881377630e-5 -1.8909482854e-5
6.7919399407e-5 -8.1372122633e-5 -6.5604871249e-6
2.9503057046e-5 -7.5549560389e-5 1.7124042944e-5
1.6534442599e-5 -8.1228312701e-5 -5.7200874198e-6
5.3390464279e-5 -7.6146226414e-5 8.5010924784e-7
4.8888452695e-5 -7.3278779740e-5 -9.6280921427e-6
3.2831949605e-5 -1.0626554646e-4 -7.4045369988e-6
-6.1154739688e-6 -1.1566574624e-4 6.1395154169e-6
1.1073932145e-4 -1.0313967855e-4 -5.4681890769e-6
1.0603746197e-4 -9.9286474443e-5 -2.8899188873e-5
8.9205345542e-6 -9.4754307311e-5 -4.4770572598e-6
3.4208542497e-5 -9.9450810594e-5 -3.7641465007e-6
4.1432989872e-5 -7.7805675946e-5 4.0160731656e-6
2.2251475353e-5 -1.2160408273e-4 -1.9449911691e-5
4.5559033429e-5 -1.4208006398e-4 -1.9369637761e-5
-3.9669194342e-5 -1.1652324708e-4 -6.2989542793e-6
8.5063135794e-5 -1.5936153305e-4 -5.3153667933e-6
5.2802237333e-5 -1.3176074459e-4 -1.1647425851e-6
2.0061105045e-5 -9.5415201838e-5 1.6759473609e-5
3.3691260396e-5 -7.8143930465e-5 -3.9490788141e-5
2.3009400447e-5 -6.4992658739e-5 -2.3589465475e-5
3.0785411456e-6 -1.4494569614e-4 -2.4226827396e-5
3.5867837949e-5 -1.1863244179e-4 -5.0959600107e-6
1.1033851782e-6 -1.5657068069e-4 -8.4997948435e-5
9.6252447983e-5 -1.3780128241e-4 -2.8777812340e-5
9.5170896426e-5 -7.6688263249e-5 8.2858090064e-6
-2.8285173593e-5 -5.1760984113e-5 -2.4645829646e-5
2.0842786634e-5 -8.6804607226e-5 -3.5008413670e-5
-1.1963785764e-5 -7.2667632184e-5 -4.0392679782e-5
-3.5917918940e-5 -9.2204519309e-5 -3.3978355246e-5
3.8466364237e-5 -1.5439963117e-4 -4.0152084938e-5
1.2497830033e-6 -9.1947252684e-5 2.8749306448e-7
4.6021658007e-5 -1.6797772462e-4 -2.3117160974e-6
3.7563652798e-5 -2.3819208764e-5 2.2081859468e-6
-6.3600448949e-6 3.4252500630e-5 -1.4048862150e-5
6.2749241591e-5 -4.7991432907e-5 -9.0424973647e-5
-3.1217837905e-5 -1.0706829075e-5 -2.7229543386e-5
-4.2364518311e-5 -1.0244637373e-4 -9.1515226127e-5
4.6877566786e-5 -4.7954628678e-5 -1.0638214228e-4
1.0449296268e-4 -2.1861348435e-5 2.2609806115e-5
1.1139817646e-4 -1.9757093798e-5 1.0545380171e-7
1.2530863244e-4 -5.0919641118e-5 -2.8563857929e-6
1.3338113619e-4 -7.6131654271e-5 1.3977456651e-5
4.5720484468e-5 -5.7123502451e-5 3.9860776401e-7
5.3577559553e-5 -5.7471601957e-5 1.7676797822e-5
6.6857430778e-5 -4.3498525995e-5 1.7081949220e-5
5.4857713291e-5 -6.0009311898e-5 -5.2437890971e-6
1.0385197910e-4 -8.3636785404e-5 -1.2859747933e-5
1.1944313096e-4 -9.8345974708e-5 -9.8741005056e-7
1.2458146614e-4 -9.2289563016e-5 1.8323627992e-5
1.0232202237e-4 -1.2408069387e-4 1.6733694461e-5
5.9818693040e-5 -6.4548022348e-5 3.8231878526e-6
5.7086839079e-5 -6.7931380747e-5 1.1715172587e-5
5.1925597883e-5 -6.1756221720e-5 -7.7374618379e-6
6.4356974453e-5 -7.5234798156e-5 -1.1879667687e-5
7.2129105399e-5 -1.2877769978e-4 -2.0411009731e-5
1.2619980028e-4 -1.3201235578e-4 -5.3209372733e-5
1.0722482506e-4 -9.9128224344e-5 -9.3314831370e-6
8.3217620210e-5 -1.2992960378e-4 2.7635519743e-5
3.9425192092e-5 -7.6918276685e-5 -9.3497671033e-6
3.7797244341e-5 -6.0012183646e-5 -3.3554135691e-6
2.9376875175e-5 -7.4336157642e-5 -7.0091366976e-6
3.9834182949e-5 -1.1707074233e-4 -2.6011052959e-5
5.4156450593e-5 -1.3093872720e-4 -3.9205667808e-5
1.2485311372e-4 -1.3055914926e-4 -1.3423924736e-5
7.5014070764e-5 -6.4749987645e-5 2.3607968448e-6
2.2146113953e-5 -7.5456531326e-5 -2.8512806085e-6
2.4076170139e-5 -5.9182389787e-5 -7.5135412561e-6
-4.2471373003e-6 -5.0913077003e-5 -6.6297027527e-6
-2.1638107573e-5 -7.3029437220e-5 -1.9241460828e-5
1.3992754844e-5 -1.2661871149e-4 -1.5923104581e-5
-3.7110243745e-5 -8.7420366278e-5 -2.7951359605e-5
6.1995399679e-5 -1.1181699795e-4 2.6319313782e-6
7.6340245974e-5 -1.2860708830e-5 -7.2022745364e-5
9.8022439415e-6 -5.1706742802e-6 -4.9210325510e-5
6.7099461827e-6 -2.3509281919e-5 -2.3748091446e-5
-4.7757914426e-5 -3.6894377164e-5 -4.9130156796e-5
-7.5381200913e-5 -5.3884338464e-5 -4.4425971525e-5
3.7519887876e-5 -6.0719034317e-5 -3.2892649486e-5
1.4822588704e-4 -1.4935126411e-5 7.8751330207e-6
1.0038459839e-4 -5.9080404740e-6 1.2400721226e-5
8.9501346251e-5 -3.6807379503e-5 2.5443272964e-5
1.4391786599e-4 -7.9589551604e-5 1.1554674773e-5
5.1930504375e-5 -3.0804092174e-5 1.2646550897e-5
8.0467107823e-5 -2.1778355243e-5 2.8471359003e-5
7.3962500720e-5 6.3584099091e-7 8.7601206525e-6
5.7859046166e-5 -3.5359024288e-5 2.4384078145e-5
1.4000571455e-4 -5.5727077041e-5 2.8290659512e-5
1.4355374768e-4 -4.9668924355e-5 -1.7830270027e-5
1.1719987088e-4 -8.1695799731e-5 2.8930353661e-5
1.1815670879e-4 -1.0543233495e-4 3.9849255573e-5
5.7111650020e-5 -3.5641191059e-5 5.9707102416e-6
7.2622669446e-5 -2.5839655942e-5 3.3281497027e-5
6.4017946015e-5 -8.4755737644e-6 1.6215290617e-5
5.9706983374e-5 -4.5963702338e-5 -8.5159078420e-6
9.5568366123e-5 -9.5240546056e-5 5.1803580063e-5
1.2014215832e-4 -8.4774481166e-5 -2.0124490855e-5
9.9374738890e-5 -8.9721395212e-5 -2.3829489789e-5
1.0243588417e-4 -1.0222492719e-4 3.0513807082e-5
3.5765313505e-5 -3.9670719959e-5 1.4388143966e-6
3.8493916584e-5 -1.3181122276e-5 3.4347793459e-6
3.0296666744e-5 -2.2971238527e-5 -1.9550392416e-5
3.9157434750e-5 -4.8717032744e-5 -2.7096272977e-5
8.0773770244e-5 -1.0656662986e-4 -4.7190910107e-5
1.0406298005e-4 -8.9139486872e-5 -3.5687735225e-5
1.0858051023e-4 -6.2521873808e-5 -2.2223715186e-5
5.1651989571e-5 -8.0301671288e-5 -3.3664192133e-5
1.9885768805e-5 -4.2472619093e-5 -1.1254199515e-5
2.4219149484e-5 -2.6712421927e-5 5.8397968806e-6
-3.9428596211e-6 -3.6484750045e-5 -1.5422448344e-5
1.5217410536e-5 -5.8701892163e-5 -2.9249755918e-5
5.3977716001e-5 -7.1014286392e-5 -1.6342554020e-5
1.1859763333e-4 -6.7520401222e-5 -3.6867182141e-5
8.4200330842e-5 1.4143321781e-5 -9.3774057110e-5
1.8367920101e-5 -1.0461842068e-5 1.5475112154e-5
1.4877799278e-5 -2.4150121973e-5 -2.5102679492e-5
-2.0125129091e-5 -3.4140153702e-5 -2.3737656048e-5
-5.1637205032e-5 -5.4459383821e-5 -5.3775216520e-5
1.9337464441e-6 -4.1008858008e-5 -5.4256768894e-5
1.4669056059e-4 3.7147700162e-5 1.2878094514e-5
4.8193244980e-5 3.4248030766e-5 1.3064634355e-5
9.8567941068e-5 -3.7783270957e-5 -5.5314862284e-6
1.2241849336e-4 -6.4701201943e-5 9.5525619106e-6
5.9966083351e-5 -1.0427149015e-7 1.4749130878e-5
8.4548404398e-5 1.6318081892e-5 3.5614422085e-5
8.5484980324e-5 5.2830285375e-5 4.2242561035e-5
6.1099485270e-5 3.9097026063e-6 1.9515407242e-5
1.1199683965e-4 -5.0956813000e-6 4.7027262865e-5
7.0735197220e-5 -2.5603098469e-6 -3.1419536136e-5
7.8114090573e-5 -3.5467736431e-5 -3.8227500068e-5
1.3040836097e-4 -7.7045791581e-5 -2.1926163874e-6
5.0053287809e-5 7.3841964051e-6 1.1291551003e-5
1.0469321781e-4 5.8437483217e-6 2.6927011396e-5
7.5244756093e-5 4.0659087422e-5 2.4895982058e-5
6.4151448795e-5 4.1081375944e-6 3.1035947864e-6
1.2962929633e-4 -5.3904230769e-5 2.5933857668e-5
9.7239673391e-5 -2.6898597764e-5 -2.2198736502e-6
9.6769151369e-5 -6.0778422559e-5 5.9183856188e-6
1.2233649067e-4 -8.5069073213e-5 4.5107410358e-5
4.5884965735e-5 -2.4922948740e-6 7.3701670153e-6
6.3285800547e-5 8.8088376614e-6 2.7770192437e-5
5.6009569264e-5 3.1573342066e-5 2.0413949920e-5
3.8625247316e-5 -1.2313868874e-6 -4.0285068393e-6
1.0530430828e-4 -4.9185768536e-5 -4.3047472339e-5
9.2641288310e-5 -4.9921668875e-5 -2.2947667077e-5
8.1558097395e-5 -3.9444035473e-5 -2.3688124774e-5
9.5849659133e-5 -5.8451256351e-5 -3.8012016317e-6
1.6692945520e-5 -2.2126237999e-6 -1.1962343233e-6
4.3317479935e-5 8.5658715576e-7 2.7037367655e-5
3.3555281624e-5 5.5768751987e-6 -6.5519785087e-7
1.3770837904e-5 -2.6020973138e-5 -1.8986428772e-5
8.0764438403e-5 -5.6733585748e-5 -8.8714206365e-6
8.3058145503e-5 -4.2345942367e-5 -1.6562815481e-5
9.4723629688e-5 2.0701500232e-5 -9.5706527864e-6
4.6915178054e-5 1.1590851903e-5 -1.2817206559e-5
5.2859526914e-6 -2.6213548306e-5 5.0056210882e-6
-2.5037303281e-6 -2.5369116262e-6 -3.7294171471e-6
-1.3527729146e-5 -3.2341949451e-5 -2.3153038987e-5
3.2345091844e-6 -2.8759580267e-5 -3.8832243639e-5
5.8087153861e-5 5.3555720512e-5 1.3826428087e-5
-3.9812315679e-5 1.2536875648e-4 4.0578054555e-6
-7.9911554999e-5 -4.3711361206e-5 -2.6360002381e-5
1.0656021768e-4 -5.1685713245e-5 -2.5472388068e-5
3.5463412612e-5 -8.0502168311e-6 2.9438562217e-5
4.4936495231e-5 -1.6397589254e-5 2.3661503368e-5
9.4075827287e-5 7.2098823462e-5 3.9983779980e-5
2.7755366348e-5 9.3632106905e-5 3.6064584324e-5
9.7398060967e-5 1.6604756090e-5 5.7804456686e-5
-5.9810960853e-5 4.6350197930e-5 5.8356242399e-5
-2.5803580853e-5 -2.8583401002e-5 -1.5227297636e-5
9.0373409561e-5 -3.6014978863e-5 4.9187681330e-5
4.5445005675e-5 2.2509961658e-6 7.5990803088e-5
6.2471248776e-5 -1.6235560733e-5 7.0164968854e-5
6.5262280441e-5 1.0261425435e-4 5.5552052165e-5
4.4200007746e-5 5.6732231516e-5 1.9255104745e-5
8.7603682509e-5 2.9321100332e-5 2.0276713852e-5
-2.7658314165e-5 2.2244884632e-5 1.9873303980e-5
-4.7645841355e-6 -4.5603381001e-5 2.0727649651e-5
8.3679508959e-5 -8.3258781953e-5 4.0674035202e-5
2.3369680991e-5 -4.7338610995e-6 3.3912148077e-5
7.0805305570e-5 3.1450731074e-5 9.2536517759e-5
9.5470798753e-5 6.4845707505e-5 9.3363347514e-5
4.2589976285e-5 4.8936273975e-5 3.0545233180e-5
9.2306862804e-5 -2.2422167097e-5 2.9878765520e-5
2.2328876384e-5 -1.3223967486e-5 4.9041958344e-6
3.9060771051e-5 -2.5035532421e-5 7.2805068322e-6
8.8022989346e-5 -4.9988365797e-5 2.9157084631e-5
3.7092871092e-5 1.4165494747e-5 -6.8491182338e-6
4.2483140606e-5 1.1892714002e-5 3.8228760688e-5
4.7772703512e-5 3.5944436177e-5 2.7715783835e-5
1.8816201393e-5 2.8225738445e-5 3.6689233225e-6
7.2731759373e-5 -2.0223313334e-5 -4.9957921646e-6
6.4335261132e-5 -1.3794184689e-5 -1.2913159582e-5
7.1678627968e-5 1.4560102958e-5 2.0584099570e-5
6.8857607702e-5 4.4579031654e-6 1.1769956971e-5
2.0894578513e-5 -1.2007174939e-5 -7.8932254086e-6
5.6433178898e-5 -2.8032439388e-6 2.5624395131e-5
3.9494134892e-5 -2.8173363815e-5 3.7416112458e-6
3.2382458817e-5 -4.5029118084e-5 -2.7754315275e-5
0.0000000000e0 0.0000000000e0 0.0000000000e0
-1.1078643749e-16 8.0386223935e-17 3.2277196577e-18
1.4218553006e-17 -1.1676801010e-17 -7.9674404749e-17
0.0000000000e0 0.0000000000e0 0.0000000000e0
0.0000000000e0 0.0000000000e0 0.0000000000e0
3.3400196350e-17 1.9755855768e-16 1.3009909630e-17
5.4094262994e-16 2.4557997457e-16 5.2113037514e-17
0.0000000000e0 0.0000000000e0 0.0000000000e0
1.7407291344e-1 -1.6486773136e2 6.4508425595e2
8.6143489998e1 4.3312585502e2 6.9885325662e2
-2.5793928754e2 -2.0272549247e2 4.8135348563e2
2.8758231574e2 1.7964737810e2 5.2703357847e2
-4.2316145321e1 3.2691493947e2 5.7780531692e2
7.0986204202e1 -4.1201386809e2 1.7101597310e2
-1.5960040024e2 1.7241934116e2 4.1875556796e2
2.0150590583e2 -1.6024663010e2 4.4742243769e2
4.3983559046e2 3.6203938601e1 6.6853597773e2
-2.9727480527e-5 1.5121469108e-5 9.0748352421e-6
-3.2128484389e0 1.9439113479e1 1.4651105480e2
-7.8365240158e-6 -1.1788967765e-6 1.6607290747e-6
3.7616384986e-5 -2.5874542898e-5 -4.8216105477e-6
-1.4067528607e-6 -1.9690972924e-6 4.9717362732e-7
1.7544410431e-6 2.5963164563e-6 -7.7765260819e-7
-3.4597686256e-7 1.8167505556e-6 -1.0129593045e-8
-7.2479624690e-7 4.4299396078e-7 -4.6328236570e-7
4.3671332830e-6 -8.2037917266e-7 -1.1509583269e-7
5.3872398334e-6 -5.2864840942e-6 -5.8217376860e-7
7.7354503761e-6 4.5500603519e-6 -5.5405599855e-7
-2.7622341893e-6 2.0101345046e-6 4.5769874659e-7
5.9818876586e-6 1.8575975196e-5 -5.3100870169e-6
-2.9195632456e-6 -3.0383559379e-6 6.3475996027e-7
-5.0910105702e-3 9.3758850858e-3 1.1234748822e-3
7.5367992026e-6 -2.6442177603e-5 -4.8700997929e-7
-5.6604037436e-5 -3.1756697362e-6 1.5388880796e-6
1.0590831967e-2 -1.8035328299e-2 -2.5789713905e-5
-1.2343042727e-5 -5.9710443261e-6 2.4655252209e-7
1.1672453763e-4 -9.4798389287e-5 -3.0276513565e-5
-2.4891012643e-6 -3.2092523040e-6 5.7673137420e-9
9.7895144059e-6 1.2814311850e-7 -9.6441043591e-7
1.5129185372e-6 -2.0112239130e-6 -3.8103891598e-7
9.5531331214e-7 2.3601306550e-6 -8.7291305588e-7
1.7417576897e-5 -3.9383850636e-6 1.0049035061e-7
-1.5185835702e-6 2.2026734084e-6 -2.2789286530e-7
7.5080127412e-6 2.5283339461e-6 -6.8472085284e-7
-7.7774796936e-6 1.9866624231e-5 6.1996924929e-6
4.4211322940e-5 2.5801759914e-5 1.9396613698e-5
-1.0042398284e-5 -5.9444192306e-6 1.2310863501e-7
8.4397089651e-5 -2.2711162622e-4 7.6684273101e-5
-1.6382444003e-5 -1.0222746675e-4 1.3554162040e-5
-7.3421893893e-5 -2.6694264797e-5 -8.4228460386e-6
5.2147702766e-4 -1.0625921541e-3 -3.0741220079e-4
-1.2009879051e-5 -7.3389309031e-6 1.4332104421e-6
1.8025230784e-4 -1.2918211480e-4 -4.8424901514e-6
-3.0814434243e-6 -7.8929941011e-6 1.5132224044e-7
2.8901370167e-5 6.8319589989e-6 4.9773397373e-6
6.2408866218e-6 -1.6445047238e-5 2.4487814067e-6
1.9160088706e-6 8.4248905607e-6 3.3497160246e-6
-1.6899628978e-3 4.5182973730e-4 -2.1038743857e-4
-3.3024871134e-5 4.3980986130e-5 -3.9091228158e-7
1.4412620905e-5 -1.2995986312e-6 2.9521534841e-6
3.2348468461e-5 -8.5978181348e-4 -3.6045427274e-5
1.9701615329e-5 1.7707304520e-5 -1.0973482732e-6
-1.5746443042e-5 -2.6460451217e-5 -1.0409900489e-5
8.7054736985e-6 -4.8375705998e-5 3.5392616322e-5
-1.4413836995e-5 -1.0197853647e-4 -1.5131129801e-5
1.8867275917e-5 -1.9755088264e-5 3.1168774116e-6
1.2451346266e-6 -6.6705750675e-6 6.1705867412e-6
4.8231314386e-7 -2.2847938461e-6 8.6239801521e-7
7.6792287187e-7 -3.5657930523e-7 4.4054389712e-7
-1.6216525670e-6 1.9092397474e-6 -2.3913619430e-7
-1.0696195932e-7 -8.9378789469e-7 -3.4647871938e-7
6.1704103097e-8 -7.8641313057e-7 -2.0159572856e-7
-9.4370439124e-6 -1.9124257818e-5 1.6956872587e-6
-9.5642298209e-3 2.5694107298e-2 5.0826899036e-6
1.4655271913e-5 1.3496389795e-5 5.0383957682e-6
1.7409938871e-6 3.1561526993e-7 4.3439197374e-7
1.2237111189e-6 2.1957101742e-7 6.8728265622e-8
-1.5879037152e-6 3.3804117327e-6 -3.2034898957e-7
4.2536344922e-6 -4.1620108672e-6 -4.2538620373e-7
-2.7338804084e-6 1.2438515350e-6 1.4538808129e-6
-1.3591932319e-5 1.8829311768e-6 -6.9712536369e-6
-5.9932600979e-5 2.1011585581e-4 8.6820464287e-5
-7.6111764626e-6 4.7210186885e-5 8.5128820126e-6
-2.8917572890e-6 6.3526593707e-6 -4.2964715486e-6
-8.9019582392e-8 4.4125700236e-7 4.5686275511e-7
6.4367741699e-6 -9.8607651328e-6 2.0110446966e-6
1.1996801247e-3 -4.0285385802e-3 8.2088229334e-4
1.4190979979e-6 5.0938933040e-6 1.1400744394e-6
-1.0538230007e-5 1.4086042406e-5 -1.0213268903e-5
-2.7172389839e-5 1.0035486679e-5 1.1665334214e-6
1.8193262305e-6 -1.0609620871e-5 5.4154162484e-5
-7.5845343144e-5 -4.5537471073e-5 -1.7857065043e-5
-4.1732010102e-5 -6.2664571457e-6 1.2180340079e-5
4.8959871504e-4 -1.1215511438e-3 -5.3684378400e-4
-2.8954546265e-5 5.2427803944e-5 2.8831890869e-6
6.4326949776e-6 1.9882527265e-5 4.9175220887e-6
4.2119841331e-5 2.4229890886e-5 8.8217903055e-6
2.3956536117e-4 -3.1031509749e-5 6.4408447447e-5
3.5714515569e-4 -8.7685803462e-4 -4.7535595556e-6
-8.9965940169e-5 -1.3286823569e-4 -1.6098889807e-5
-2.5086493064e-5 -9.0342187705e-6 -4.5528403353e-6
-6.9748420158e-5 3.2250611108e-5 2.3194601254e-6
-3.6001575969e-6 9.6699288335e-6 -2.3337996489e-6
4.9282045273e-6 9.9879840993e-6 2.6046777486e-6
2.8397626471e-5 1.4023044850e-5 7.1965860114e-6
2.1243332591e-4 -4.9602165596e-5 4.4122835431e-5
1.1122720598e-2 -1.7811280174e-2 1.3443672559e-4
-5.5354242614e-5 -6.0267000970e-5 3.2116628907e-5
-1.4735698166e-5 -5.4917279883e-6 2.8041277808e-7
-1.1926711807e-5 2.4040573547e-6 1.2856476534e-6
-1.9895114586e-7 -5.8358361156e-7 -1.4456911352e-6
3.3232772789e-6 5.1603876011e-6 3.3446224328e-8
1.6725150568e-5 5.1104404688e-6 -2.3474917926e-8
1.3587126400e-4 -6.2789400109e-5 -2.8513983611e-5
1.5792797706e1 -9.2096480451e1 1.7082786384e2
-4.7242763760e2 -7.0559925253e1 2.1326072547e2
-3.6823845024e-6 -1.6515552332e-5 5.6214883621e-6
6.2622663133e-5 9.1970884209e-5 2.7944972437e-5
-1.7972225385e-5 1.6024871893e-5 3.2054818899e-5
-1.7866899505e-3 1.1891616527e-3 1.2231342408e-3
1.2069717094e-5 -1.1103119900e-5 -5.3953407057e-6
-4.1494465817e-5 -5.2980018620e-7 -5.9055690023e-6
-1.2432421589e-5 3.8723005663e-5 -1.6148995788e-5
-8.4628173839e-4 1.2880715776e-3 1.6537095768e-3
0.0000000000e0 0.0000000000e0 0.0000000000e0
0.0000000000e0 0.0000000000e0 0.0000000000e0
0.0000000000e0 0.0000000000e0 0.0000000000e0
0.0000000000e0 0.0000000000e0 0.0000000000e0
1.9170934030e-5 2.0279010984e-5 -1.2224502357e-4
-2.3389435545e-16 -2.7802631433e-17 -9.1315854435e-18
-1.8166474768e-16 -1.3391977297e-15 -5.3318211869e-17
1.6710091976e-15 -2.4419809876e-16 2.4592854597e-17
-5.6035413888e-16 -2.0192324904e-16 6.0797760942e-17
-9.9115521063e-17 -3.8262400143e-17 -6.4436935510e-33
-1.8508067826e-16 -2.7120818888e-17 7.2688888459e-17
2.2984628032e-6 1.1830687108e-16 -2.5472392920e-16
2.4127899733e-16 2.6890155793e-17 -1.6768262471e-16
-7.1671211806e-17 3.6663450214e-17 -3.1892578832e-16
-9.9054096071e-16 -5.3762848435e-17 4.6435642120e-16
1.9428308377e-16 -4.8794713577e-33 -5.3187246810e-16
5.9042087815e-16 -1.1969581952e-17 3.6621331302e-16
-4.4986615082e-16 -1.3629974996e-17 4.4160386850e-16
5.2616496865e-17 5.5497883607e-19 -5.5732944973e-17
2.7667419707e-16 -5.8134860921e-18 1.1279111409e-16
-5.1249762742e-16 2.0987491542e-17 2.6073526015e-16
-1.7122909419e-16 1.5650914434e-18 2.5961050902e-17
2.1303363297e-16 -1.9436942128e-17 6.5192036145e-16
-2.0998707019e-16 -4.4085744711e-17 -3.6034933958e-16
9.5019356069e-16 1.6674869090e-17 1.2235792769e-16
-1.7570392522e-16 3.6030744264e-17 3.2918495658e-16
5.3326612064e-16 -2.4513264503e-16 -5.6144663053e-16
1.3174247932e-16 -1.0552120380e-16 -3.0091384380e-31
-5.6379539361e-5 2.6334044766e-16 -5.5996375983e-17
7.0728187537e-16 -6.0844355130e-17 2.3105200902e-18
8.6058047003e-16 -3.2921319041e-16 -2.9125728171e-17
-2.0492446804e-16 1.3490478353e-15 2.2527176034e-17
1.7410202702e-16 -5.6099490277e-17 -3.4979346205e-31
0.0000000000e0 0.0000000000e0 0.0000000000e0
0.0000000000e0 0.0000000000e0 0.0000000000e0
0.0000000000e0 0.0000000000e0 0.0000000000e0
0.0000000000e0 0.0000000000e0 0.0000000000e0
0.0000000000e0 0.0000000000e0 0.0000000000e0
0.0000000000e0 0.0000000000e0 0.0000000000e0
0.0000000000e0 0.0000000000e0 0.0000000000e0
0.0000000000e0 0.0000000000e0 0.0000000000e0
0.0000000000e0 0.0000000000e0 0.0000000000e0
0.0000000000e0 0.0000000000e0 0.0000000000e0
0.0000000000e0 0.0000000000e0 0.0000000000e0
0.0000000000e0 0.0000000000e0 0.0000000000e0
0.0000000000e0 0.0000000000e0 0.0000000000e0
0.0000000000e0 0.0000000000e0 0.0000000000e0
0.0000000000e0 0.0000000000e0 0.0000000000e0
0.0000000000e0 0.0000000000e0 0.0000000000e0
0.0000000000e0 0.0000000000e0 0.0000000000e0
0.0000000000e0 0.0000000000e0 0.0000000000e0
0.0000000000e0 0.0000000000e0 0.0000000000e0
0.0000000000e0 0.0000000000e0 0.0000000000e0
0.0000000000e0 0.0000000000e0 0.0000000000e0
0.0000000000e0 0.0000000000e0 0.0000000000e0
0.0000000000e0 0.0000000000e0 0.0000000000e0
0.0000000000e0 0.0000000000e0 0.0000000000e0
0.0000000000e0 0.0000000000e0 0.0000000000e0
0.0000000000e0 0.0000000000e0 0.0000000000e0
0.0000000000e0 0.0000000000e0 0.0000000000e0
0.0000000000e0 0.0000000000e0 0.0000000000e0
0.0000000000e0 0.0000000000e0 0.0000000000e0
0.0000000000e0 0.0000000000e0 0.0000000000e0
0.0000000000e0 0.0000000000e0 0.0000000000e0
0.0000000000e0 0.0000000000e0 0.0000000000e0
0.0000000000e0 0.0000000000e0 0.0000000000e0
0.0000000000e0 0.0000000000e0 0.0000000000e0
0.0000000000e0 0.0000000000e0 0.0000000000e0
5.0940435023e-16 5.6925422112e-16 -3.4778007346e-30
-1.3040169153e-15 -1.2380715073e-4 3.4719265258e-16
3.4160821032e-15 -3.9804232154e-16 4.6599952438e-18
-1.1906178085e-16 1.0756528098e-15 -5.7714404166e-17
1.0149644467e-4 -6.0220103692e-16 1.6013216613e-16
-8.5958613940e-16 -4.6282177174e-16 1.5675187532e-16
-1.1193761569e-17 -3.3467638939e-17 1.2456930238e-16
7.6937497274e-17 4.9147982256e-16 5.7187170469e-16
2.8052680606e-17 1.0675973766e-15 -1.4434980530e-16
-3.2310404271e-17 4.6939263173e-16 2.7362645670e-16
-1.2127065324e-16 -3.2618721424e-5 5.7105209658e-16
2.0696112750e-17 3.7731180399e-16 -3.6018635019e-16
-1.4957502116e-17 -3.3412145886e-16 -3.4888646341e-16